 Q-Chem 5.4 (devel), Q-Chem, Inc., Pleasanton, CA (2021)
 Q-Chem 5.4.1 for Intel X86 EM64T Linux

User input:
--------------------------------------------------------------
$comment
Hydrogen molecule
$end

$molecule
0 1
 H         0.0000000000    0.0000000000    0.0000000000
 H         0.0000000000    0.0000000000    1.5000000000
 H         1.6500000000    0.0000000000    0.0000000000
 H         1.6500000000    0.0000000000    1.5000000000
$end

$rem
   n_frozen_core = 0
   print_qis = true
   BASIS                = sto-3g
!   SYMMETRY             = true
!   CC_SYMMETRY          = false
   METHOD               = eom-ccsd
   EE_SINGLETS          = [1,1,1,1,1,1,1,1] ! Compute two EOM-EE singlet excited states
   EE_TRIPLETS          = [1,1,1,1,1,1,1,1] ! Compute two EOM-EE triplet excited states
   CC_REF_PROP          = true ! Compute ground state properties
   CC_EOM_PROP          = true ! Compute excited state properties
   cc_eom_prop_te = 1
!   CC_OSFNO             = true
   GUI                  = 2
$end
--------------------------------------------------------------

             Standard Nuclear Orientation (Angstroms)
    I     Atom           X                Y                Z
 ----------------------------------------------------------------
    1      H       0.8250000000    -0.7500000000    -0.0000000000
    2      H       0.8250000000     0.7500000000     0.0000000000
    3      H      -0.8250000000    -0.7500000000    -0.0000000000
    4      H      -0.8250000000     0.7500000000     0.0000000000
 ----------------------------------------------------------------

    2      -1.7517549174      1.12e-16  Convergence criterion met
 Total energy in the final basis set =       -1.7517549174
 CCSD total energy          = -1.96179206
 EOMEE transition 1/Ag
 Total energy = -1.82375387 a.u.  Excitation energy = 3.75621012 eV.
 EOMEE-CCSD transition 1/Ag
 Excited state properties for  EOMEE-CCSD transition 1/Ag
 EOMEE transition 1/B1g
 Total energy = -1.61602039 a.u.  Excitation energy = 9.40892542 eV.
 EOMEE-CCSD transition 1/B1g
 Excited state properties for  EOMEE-CCSD transition 1/B1g
 EOMEE transition 1/B2u
 Total energy = -1.44855175 a.u.  Excitation energy = 13.96597907 eV.
 EOMEE-CCSD transition 1/B2u
 Excited state properties for  EOMEE-CCSD transition 1/B2u
 EOMEE transition 1/B3u
 Total energy = -1.40454283 a.u.  Excitation energy = 15.16352269 eV.
 EOMEE-CCSD transition 1/B3u
 Excited state properties for  EOMEE-CCSD transition 1/B3u
 EOMEE transition 1/Ag
 Total energy = -1.26354940 a.u.  Excitation energy = 19.00014886 eV.
 EOMEE-CCSD transition 1/Ag
 Excited state properties for  EOMEE-CCSD transition 1/Ag
 EOMEE transition 1/B1g
 Total energy = -1.94520089 a.u.  Excitation energy = 0.45146860 eV.
 EOMEE-CCSD transition 1/B1g
 Excited state properties for  EOMEE-CCSD transition 1/B1g
 EOMEE transition 1/B2u
 Total energy = -1.81220059 a.u.  Excitation energy = 4.07059075 eV.
 EOMEE-CCSD transition 1/B2u
 Excited state properties for  EOMEE-CCSD transition 1/B2u
 EOMEE transition 1/B3u
 Total energy = -1.79772456 a.u.  Excitation energy = 4.46450352 eV.
 EOMEE-CCSD transition 1/B3u
 Excited state properties for  EOMEE-CCSD transition 1/B3u

             Orbital Energies (a.u.) and Symmetries
 --------------------------------------------------------------

 Alpha MOs, Restricted
 -- Occupied --
 -0.444  -0.237
  1 Ag    1 B3u

 Beta MOs, Restricted
 -- Occupied --
 -0.444  -0.237
  1 Ag    1 B3u

          Ground-State Mulliken Net Atomic Charges

     Atom                 Charge (a.u.)
  ----------------------------------------
      1 H                    -0.000000
      2 H                    -0.000000
      3 H                     0.000000
      4 H                     0.000000
  ----------------------------------------
  Sum of atomic charges =     0.000000

                    Cartesian Multipole Moments
 -----------------------------------------------------------------
    Charge (ESU x 10^10)
                 0.0000
    Dipole Moment (Debye)
         X      -0.0000      Y       0.0000      Z       0.0000
       Tot       0.0000
    Quadrupole Moments (Debye-Ang)
        XX      -3.6280     XY       0.0000     YY      -2.9383
        XZ      -0.0000     YZ       0.0000     ZZ      -3.6173

 Total job time:  5.38s(wall), 10.40s(cpu)
        *  Thank you very much for using Q-Chem.  Have a nice day.  *
