 Q-Chem 5.4 (devel), Q-Chem, Inc., Pleasanton, CA (2021)
 Q-Chem 5.4.1 for Intel X86 EM64T Linux

User input:
--------------------------------------------------------------
$comment
Water molecule
$end

$molecule
0 1
O
H O 0.7
H O 0.7 H 104.5
$end

$rem
   n_frozen_core = 0
   print_qis = true
   BASIS                = sto-3g
!   SYMMETRY             = true
!   CC_SYMMETRY          = false
   METHOD               = eom-ccsd
   EE_SINGLETS          = [1,1,1,1] ! Compute two EOM-EE singlet excited states
   EE_TRIPLETS          = [1,1,1,1] ! Compute two EOM-EE triplet excited states
   CC_REF_PROP          = true ! Compute ground state properties
   CC_EOM_PROP          = true ! Compute excited state properties
!   CC_OSFNO             = true
   GUI                  = 2
$end
--------------------------------------------------------------

             Standard Nuclear Orientation (Angstroms)
    I     Atom           X                Y                Z
 ----------------------------------------------------------------
    1      O      -0.0000000000     0.0000000000     0.0857104192
    2      H      -0.5534827016    -0.0000000000    -0.3428416768
    3      H       0.5534827016    -0.0000000000    -0.3428416768
 ----------------------------------------------------------------

    7     -74.6187442145      3.75e-09  Convergence criterion met
 Total energy in the final basis set =      -74.6187442145
 CCSD total energy          = -74.64365109
 EOMEE transition 1/A1
 Total energy = -73.77167749 a.u.  Excitation energy = 23.72760841 eV.
 Excited state properties for  EOMEE-CCSD transition 1/A1
 EOMEE transition 1/A2
 Total energy = -73.70476523 a.u.  Excitation energy = 25.54838341 eV.
 Excited state properties for  EOMEE-CCSD transition 1/A2
 EOMEE transition 1/B1
 Total energy = -73.57586735 a.u.  Excitation energy = 29.05587314 eV.
 Excited state properties for  EOMEE-CCSD transition 1/B1
 EOMEE transition 1/B2
 Total energy = -73.84627551 a.u.  Excitation energy = 21.69769286 eV.
 Excited state properties for  EOMEE-CCSD transition 1/B2
 EOMEE transition 1/A1
 Total energy = -73.82174918 a.u.  Excitation energy = 22.36508828 eV.
 Excited state properties for  EOMEE-CCSD transition 1/A1
 EOMEE transition 1/A2
 Total energy = -73.74275992 a.u.  Excitation energy = 24.51449536 eV.
 Excited state properties for  EOMEE-CCSD transition 1/A2
 EOMEE transition 1/B1
 Total energy = -73.68143635 a.u.  Excitation energy = 26.18319466 eV.
 Excited state properties for  EOMEE-CCSD transition 1/B1
 EOMEE transition 1/B2
 Total energy = -73.92516389 a.u.  Excitation energy = 19.55103080 eV.
 Excited state properties for  EOMEE-CCSD transition 1/B2

             Orbital Energies (a.u.) and Symmetries
 --------------------------------------------------------------

 Alpha MOs, Restricted
 -- Occupied --
-20.256  -1.459  -0.781  -0.498  -0.440
  1 A1    2 A1    1 B1    3 A1    1 B2

 Beta MOs, Restricted
 -- Occupied --
-20.256  -1.459  -0.781  -0.498  -0.440
  1 A1    2 A1    1 B1    3 A1    1 B2

          Ground-State Mulliken Net Atomic Charges

     Atom                 Charge (a.u.)
  ----------------------------------------
      1 O                    -0.702416
      2 H                     0.351208
      3 H                     0.351208
  ----------------------------------------
  Sum of atomic charges =     0.000000

                    Cartesian Multipole Moments
 -----------------------------------------------------------------
    Charge (ESU x 10^10)
                 0.0000
    Dipole Moment (Debye)
         X       0.0000      Y       0.0000      Z      -1.9551
       Tot       1.9551
    Quadrupole Moments (Debye-Ang)
        XX      -4.5486     XY       0.0000     YY      -5.8351
        XZ       0.0000     YZ       0.0000     ZZ      -5.3255

 Total job time:  4.87s(wall), 13.43s(cpu)
        *  Thank you very much for using Q-Chem.  Have a nice day.  *
