 Q-Chem 5.4 (devel), Q-Chem, Inc., Pleasanton, CA (2021)
 Q-Chem 5.4.1 for Intel X86 EM64T Linux

User input:
--------------------------------------------------------------
$comment
Hydrogen molecule
$end

$molecule
0 1
H 0.0 0.0 0.0
H 0.0 0.0 0.3
$end

$rem
   print_qis = true
   BASIS                = 6-31g
   SYMMETRY             = false
   CC_SYMMETRY          = false
   METHOD               = eom-ccsd
   EE_SINGLETS          = [3]  ! Compute two EOM-EE singlet excited states
   EE_TRIPLETS          = [3]  ! Compute two EOM-EE triplet excited states
   CC_REF_PROP          = true ! Compute ground state properties
   CC_EOM_PROP          = true ! Compute excited state properties
!   CC_OSFNO             = true
   GUI                  = 2
$end
--------------------------------------------------------------

             Standard Nuclear Orientation (Angstroms)
    I     Atom           X                Y                Z
 ----------------------------------------------------------------
    1      H       0.0000000000     0.0000000000    -0.1500000000
    2      H       0.0000000000     0.0000000000     0.1500000000
 ----------------------------------------------------------------

    6      -0.6451547338      1.28e-10  Convergence criterion met
 Total energy in the final basis set =       -0.6451547338
 CCSD total energy          = -0.66051018
 EOMEE transition 1/A
 Total energy = 0.07740241 a.u.  Excitation energy = 20.07962296 eV.
 EOMEE transition 2/A
 Total energy = 0.36001887 a.u.  Excitation energy = 27.77000790 eV.
 EOMEE transition 3/A
 Total energy = 1.32177903 a.u.  Excitation energy = 53.94083273 eV.
 Excited state properties for  EOMEE-CCSD transition 1/A
 Excited state properties for  EOMEE-CCSD transition 2/A
 Excited state properties for  EOMEE-CCSD transition 3/A
 EOMEE transition 1/A
 Total energy = 0.01190571 a.u.  Excitation energy = 18.29736693 eV.
 EOMEE transition 2/A
 Total energy = 0.16520166 a.u.  Excitation energy = 22.46876194 eV.
 EOMEE transition 3/A
 Total energy = 1.19959693 a.u.  Excitation energy = 50.61608875 eV.
 Excited state properties for  EOMEE-CCSD transition 1/A
 Excited state properties for  EOMEE-CCSD transition 2/A
 Excited state properties for  EOMEE-CCSD transition 3/A

                    Orbital Energies (a.u.)
 --------------------------------------------------------------

 Alpha MOs
 -- Occupied --
 -0.7737

          Ground-State Mulliken Net Atomic Charges

     Atom                 Charge (a.u.)
  ----------------------------------------
      1 H                     0.000000
      2 H                    -0.000000
  ----------------------------------------
  Sum of atomic charges =     0.000000

                    Cartesian Multipole Moments
 -----------------------------------------------------------------
    Charge (ESU x 10^10)
                -0.0000
    Dipole Moment (Debye)
         X       0.0000      Y       0.0000      Z      -0.0000
       Tot       0.0000
    Quadrupole Moments (Debye-Ang)
        XX      -1.3572     XY       0.0000     YY      -1.3572
        XZ       0.0000     YZ       0.0000     ZZ      -1.2790

 Total job time:  3.01s(wall), 3.96s(cpu)
        *  Thank you very much for using Q-Chem.  Have a nice day.  *
