 Q-Chem 5.4 (devel), Q-Chem, Inc., Pleasanton, CA (2021)
 Q-Chem 5.4.1 for Intel X86 EM64T Linux

User input:
--------------------------------------------------------------
$comment
Hydrogen molecule
$end

$molecule
0 1
 H         0.0000000000    0.0000000000    0.0000000000
 H         0.0000000000    0.0000000000    1.5000000000
 H         2.3000000000    0.0000000000    0.0000000000
 H         2.3000000000    0.0000000000    1.5000000000
$end

$rem
   n_frozen_core = 0
   print_qis = true
   BASIS                = sto-3g
!   SYMMETRY             = true
!   CC_SYMMETRY          = false
   METHOD               = eom-ccsd
   EE_SINGLETS          = [1,1,1,1,1,1,1,1] ! Compute two EOM-EE singlet excited states
   EE_TRIPLETS          = [1,1,1,1,1,1,1,1] ! Compute two EOM-EE triplet excited states
   CC_REF_PROP          = true ! Compute ground state properties
   CC_EOM_PROP          = true ! Compute excited state properties
!   CC_OSFNO             = true
   GUI                  = 2
$end
--------------------------------------------------------------

             Standard Nuclear Orientation (Angstroms)
    I     Atom           X                Y                Z
 ----------------------------------------------------------------
    1      H       1.1500000000    -0.7500000000    -0.0000000000
    2      H       1.1500000000     0.7500000000     0.0000000000
    3      H      -1.1500000000    -0.7500000000    -0.0000000000
    4      H      -1.1500000000     0.7500000000     0.0000000000
 ----------------------------------------------------------------

    2      -1.8122457094      1.63e-16  Convergence criterion met
 Total energy in the final basis set =       -1.8122457094
 CCSD total energy          = -1.99031146
 EOMEE transition 1/Ag
 Total energy = -1.78722989 a.u.  Excitation energy = 5.52613071 eV.
 Excited state properties for  EOMEE-CCSD transition 1/Ag
 EOMEE transition 1/B1g
 Total energy = -1.50805197 a.u.  Excitation energy = 13.12294830 eV.
 Excited state properties for  EOMEE-CCSD transition 1/B1g
 EOMEE transition 1/B2u
 Total energy = -1.44262365 a.u.  Excitation energy = 14.90334329 eV.
 Excited state properties for  EOMEE-CCSD transition 1/B2u
 EOMEE transition 1/B3u
 Total energy = -1.32943624 a.u.  Excitation energy = 17.98332937 eV.
 Excited state properties for  EOMEE-CCSD transition 1/B3u
 EOMEE transition 1/Ag
 Total energy = -1.31522291 a.u.  Excitation energy = 18.37009374 eV.
 Excited state properties for  EOMEE-CCSD transition 1/Ag
 EOMEE transition 1/B1g
 Total energy = -1.89473468 a.u.  Excitation energy = 2.60077640 eV.
 Excited state properties for  EOMEE-CCSD transition 1/B1g
 EOMEE transition 1/B2u
 Total energy = -1.88095982 a.u.  Excitation energy = 2.97560945 eV.
 Excited state properties for  EOMEE-CCSD transition 1/B2u
 EOMEE transition 1/B3u
 Total energy = -1.78335522 a.u.  Excitation energy = 5.63156583 eV.
 Excited state properties for  EOMEE-CCSD transition 1/B3u

             Orbital Energies (a.u.) and Symmetries
 --------------------------------------------------------------

 Alpha MOs, Restricted
 -- Occupied --
 -0.390  -0.313
  1 Ag    1 B3u

 Beta MOs, Restricted
 -- Occupied --
 -0.390  -0.313
  1 Ag    1 B3u

          Ground-State Mulliken Net Atomic Charges

     Atom                 Charge (a.u.)
  ----------------------------------------
      1 H                     0.000000
      2 H                     0.000000
      3 H                     0.000000
      4 H                     0.000000
  ----------------------------------------
  Sum of atomic charges =     0.000000

                    Cartesian Multipole Moments
 -----------------------------------------------------------------
    Charge (ESU x 10^10)
                 0.0000
    Dipole Moment (Debye)
         X       0.0000      Y      -0.0000      Z      -0.0000
       Tot       0.0000
    Quadrupole Moments (Debye-Ang)
        XX      -3.7751     XY       0.0000     YY      -2.5225
        XZ      -0.0000     YZ       0.0000     ZZ      -3.6771

 Total job time:  4.28s(wall), 7.46s(cpu)
        *  Thank you very much for using Q-Chem.  Have a nice day.  *
