 Q-Chem 5.4 (devel), Q-Chem, Inc., Pleasanton, CA (2021)
 Q-Chem 5.4.1 for Intel X86 EM64T Linux

User input:
--------------------------------------------------------------
$comment
Water molecule
$end

$molecule
0 1
  H    0.5355326   -0.0489506    0.7341984
  O    0.0563012    0.0114119   -0.1303093
  H   -0.9024750   -0.0253772    0.1144725
$end

$rem
!   n_frozen_core = 0
!   print_qis = true
   JOBTYPE              = opt
   BASIS                = sto-3g
   SYMMETRY             = false
   CC_SYMMETRY          = false
   METHOD               = ccsd
!   EE_SINGLETS          = [5]  ! Compute two EOM-EE singlet excited states
!   EE_TRIPLETS          = [5]  ! Compute two EOM-EE triplet excited states
!   CC_REF_PROP          = true ! Compute ground state properties
!   CC_EOM_PROP          = true ! Compute excited state properties
!   CC_OSFNO             = true
   GUI                  = 2
$end

$opt
CONSTRAINT
stre  1  2  1.6
stre  2  3  1.6
ENDCONSTRAINT
$end
--------------------------------------------------------------

    8     -74.9650040615      1.66e-10  Convergence criterion met
 Total energy in the final basis set =      -74.9650040615
 CCSD total energy          = -75.01863668
    7     -74.9327431087      1.65e-09  Convergence criterion met
 Total energy in the final basis set =      -74.9327431087
 CCSD total energy          = -75.00968138
    7     -74.8535782571      1.79e-09  Convergence criterion met
 Total energy in the final basis set =      -74.8535782571
 CCSD total energy          = -74.96182200
    7     -74.7502300970      6.03e-09  Convergence criterion met
 Total energy in the final basis set =      -74.7502300970
 CCSD total energy          = -74.89927829
    9     -74.6474121067      1.86e-10  Convergence criterion met
 Total energy in the final basis set =      -74.6474121067
 CCSD total energy          = -74.84328872
 Total energy in the final basis set =      -74.6399408221
 CCSD total energy          = -74.83976117
    7     -74.6325156963      1.28e-09  Convergence criterion met
 Total energy in the final basis set =      -74.6325156963
 CCSD total energy          = -74.83812410
    7     -74.6404198746      1.11e-09  Convergence criterion met
 Total energy in the final basis set =      -74.6404198746
 CCSD total energy          = -74.84186804
    6     -74.6407700153      1.33e-09  Convergence criterion met
 Total energy in the final basis set =      -74.6407700153
 CCSD total energy          = -74.84201785

             Standard Nuclear Orientation (Angstroms)
    I     Atom           X                Y                Z
 ----------------------------------------------------------------
    1      H       1.1564730889    -0.6513787027     0.0000000000
    2      O      -0.0000253565     0.4542943669     0.0000000000
    3      H      -1.1563132864    -0.6515988531     0.0000000000
 ----------------------------------------------------------------

    6     -74.6408119879      9.75e-12  Convergence criterion met
 Total energy in the final basis set =      -74.6408119879
 CCSD total energy          = -74.84203526
 Final energy is   -74.842035262741533
 **  OPTIMIZATION CONVERGED  **

             Orbital Energies (a.u.) and Symmetries
 --------------------------------------------------------------

 Alpha MOs, Restricted
 -- Occupied --
-20.318  -1.140  -0.406  -0.373  -0.362
  1 A'    2 A'    1 A"    3 A'    4 A'

 Beta MOs, Restricted
 -- Occupied --
-20.318  -1.140  -0.406  -0.373  -0.362
  1 A'    2 A'    1 A"    3 A'    4 A'

          Ground-State Mulliken Net Atomic Charges

     Atom                 Charge (a.u.)
  ----------------------------------------
      1 H                     0.009110
      2 O                    -0.018221
      3 H                     0.009110
  ----------------------------------------
  Sum of atomic charges =     0.000000

                    Cartesian Multipole Moments
 -----------------------------------------------------------------
    Charge (ESU x 10^10)
                -0.0000
    Dipole Moment (Debye)
         X       0.0000      Y      -0.4789      Z      -0.0000
       Tot       0.4789
    Quadrupole Moments (Debye-Ang)
        XX      -5.1434     XY       0.0000     YY      -5.6020
        XZ      -0.0000     YZ       0.0000     ZZ      -6.4052

 Total job time:  21.47s(wall), 34.49s(cpu)
        *  Thank you very much for using Q-Chem.  Have a nice day.  *
