 Q-Chem 5.4 (devel), Q-Chem, Inc., Pleasanton, CA (2021)
 Q-Chem 5.4.1 for Intel X86 EM64T Linux

User input:
--------------------------------------------------------------
$comment
Water molecule
$end

$molecule
0 1
O
H O 1.6
H O 1.6 H 104.5
$end

$rem
   n_frozen_core = 0
   print_qis = true
   BASIS                = sto-3g
!   SYMMETRY             = true
!   CC_SYMMETRY          = false
   METHOD               = eom-ccsd
   EE_SINGLETS          = [1,1,1,1] ! Compute two EOM-EE singlet excited states
   EE_TRIPLETS          = [1,1,1,1] ! Compute two EOM-EE triplet excited states
   CC_REF_PROP          = true ! Compute ground state properties
   CC_EOM_PROP          = true ! Compute excited state properties
!   CC_OSFNO             = true
   GUI                  = 2
$end
--------------------------------------------------------------

             Standard Nuclear Orientation (Angstroms)
    I     Atom           X                Y                Z
 ----------------------------------------------------------------
    1      O      -0.0000000000     0.0000000000     0.1959095296
    2      H      -1.2651033180    -0.0000000000    -0.7836381184
    3      H       1.2651033180    -0.0000000000    -0.7836381184
 ----------------------------------------------------------------

    9     -74.6374606864      5.84e-11  Convergence criterion met
 Total energy in the final basis set =      -74.6374606864
 CCSD total energy          = -74.83978206
 EOMEE transition 1/A1
 Total energy = -74.63793330 a.u.  Excitation energy = 5.49258415 eV.
 Excited state properties for  EOMEE-CCSD transition 1/A1
 EOMEE transition 1/A2
 Total energy = -74.72710523 a.u.  Excitation energy = 3.06609246 eV.
 Excited state properties for  EOMEE-CCSD transition 1/A2
 EOMEE transition 1/B1
 Total energy = -74.55783873 a.u.  Excitation energy = 7.67206812 eV.
 Excited state properties for  EOMEE-CCSD transition 1/B1
 EOMEE transition 1/B2
 Total energy = -74.75932129 a.u.  Excitation energy = 2.18944897 eV.
 Excited state properties for  EOMEE-CCSD transition 1/B2
 EOMEE transition 1/A1
 Total energy = -74.75935942 a.u.  Excitation energy = 2.18841130 eV.
 Excited state properties for  EOMEE-CCSD transition 1/A1
 EOMEE transition 1/A2
 Total energy = -74.73833870 a.u.  Excitation energy = 2.76041406 eV.
 Excited state properties for  EOMEE-CCSD transition 1/A2
 EOMEE transition 1/B1
 Total energy = -74.70118690 a.u.  Excitation energy = 3.77136615 eV.
 Excited state properties for  EOMEE-CCSD transition 1/B1
 EOMEE transition 1/B2
 Total energy = -74.76994125 a.u.  Excitation energy = 1.90046518 eV.
 Excited state properties for  EOMEE-CCSD transition 1/B2

             Orbital Energies (a.u.) and Symmetries
 --------------------------------------------------------------

 Alpha MOs, Restricted
 -- Occupied --
-20.314  -1.137  -0.403  -0.379  -0.352
  1 A1    2 A1    1 B2    1 B1    3 A1

 Beta MOs, Restricted
 -- Occupied --
-20.314  -1.137  -0.403  -0.379  -0.352
  1 A1    2 A1    1 B2    1 B1    3 A1

          Ground-State Mulliken Net Atomic Charges

     Atom                 Charge (a.u.)
  ----------------------------------------
      1 O                    -0.016961
      2 H                     0.008481
      3 H                     0.008481
  ----------------------------------------
  Sum of atomic charges =     0.000000

                    Cartesian Multipole Moments
 -----------------------------------------------------------------
    Charge (ESU x 10^10)
                -0.0000
    Dipole Moment (Debye)
         X      -0.0000      Y       0.0000      Z      -0.4348
       Tot       0.4348
    Quadrupole Moments (Debye-Ang)
        XX      -5.0253     XY      -0.0000     YY      -6.4065
        XZ       0.0000     YZ       0.0000     ZZ      -5.4833

 Total job time:  8.48s(wall), 25.21s(cpu)
        *  Thank you very much for using Q-Chem.  Have a nice day.  *
