 Q-Chem 5.4 (devel), Q-Chem, Inc., Pleasanton, CA (2021)
 Q-Chem 5.4.1 for Intel X86 EM64T Linux

User input:
--------------------------------------------------------------
$comment
Hydrogen molecule
$end

$molecule
0 1
H 0.0 0.0 0.0
H 0.0 0.0 1.7
$end

$rem
   print_qis = true
   BASIS                = 6-31g
   SYMMETRY             = false
   CC_SYMMETRY          = false
   METHOD               = eom-ccsd
   EE_SINGLETS          = [3]  ! Compute two EOM-EE singlet excited states
   EE_TRIPLETS          = [3]  ! Compute two EOM-EE triplet excited states
   CC_REF_PROP          = true ! Compute ground state properties
   CC_EOM_PROP          = true ! Compute excited state properties
!   CC_OSFNO             = true
   GUI                  = 2
$end
--------------------------------------------------------------

             Standard Nuclear Orientation (Angstroms)
    I     Atom           X                Y                Z
 ----------------------------------------------------------------
    1      H       0.0000000000     0.0000000000    -0.8500000000
    2      H       0.0000000000     0.0000000000     0.8500000000
 ----------------------------------------------------------------

    4      -0.9623101363      1.65e-09  Convergence criterion met
 Total energy in the final basis set =       -0.9623101363
 CCSD total energy          = -1.03404450
 EOMEE transition 1/A
 Total energy = -0.66945263 a.u.  Excitation energy = 9.92104932 eV.
 EOMEE transition 2/A
 Total energy = -0.59429032 a.u.  Excitation energy = 11.96631975 eV.
 EOMEE transition 3/A
 Total energy = -0.00263392 a.u.  Excitation energy = 28.06610904 eV.
 Excited state properties for  EOMEE-CCSD transition 1/A
 Excited state properties for  EOMEE-CCSD transition 2/A
 Excited state properties for  EOMEE-CCSD transition 3/A
 EOMEE transition 1/A
 Total energy = -0.97354323 a.u.  Excitation energy = 1.64632306 eV.
 EOMEE transition 2/A
 Total energy = -0.01578554 a.u.  Excitation energy = 27.70823542 eV.
 EOMEE transition 3/A
 Total energy = -0.01017695 a.u.  Excitation energy = 27.86085285 eV.
 Excited state properties for  EOMEE-CCSD transition 1/A
 Excited state properties for  EOMEE-CCSD transition 2/A
 Excited state properties for  EOMEE-CCSD transition 3/A

                    Orbital Energies (a.u.)
 --------------------------------------------------------------

 Alpha MOs
 -- Occupied --
 -0.4109

          Ground-State Mulliken Net Atomic Charges

     Atom                 Charge (a.u.)
  ----------------------------------------
      1 H                    -0.000000
      2 H                     0.000000
  ----------------------------------------
  Sum of atomic charges =     0.000000

                    Cartesian Multipole Moments
 -----------------------------------------------------------------
    Charge (ESU x 10^10)
                 0.0000
    Dipole Moment (Debye)
         X       0.0000      Y       0.0000      Z       0.0000
       Tot       0.0000
    Quadrupole Moments (Debye-Ang)
        XX      -2.6488     XY       0.0000     YY      -2.6488
        XZ       0.0000     YZ       0.0000     ZZ      -1.8043

 Total job time:  7.34s(wall), 4.01s(cpu)
        *  Thank you very much for using Q-Chem.  Have a nice day.  *
