 Q-Chem 5.4 (devel), Q-Chem, Inc., Pleasanton, CA (2021)
 Q-Chem 5.4.1 for Intel X86 EM64T Linux

User input:
--------------------------------------------------------------
$comment
Hydrogen molecule
$end

$molecule
0 1
  Li        0.0000000000    0.0000000000    0.0000000000
  H         0.0000000000    0.0000000000    1.7000000000
$end

$rem
   n_frozen_core = 0
   print_qis = true
   BASIS                = sto-3g
   SYMMETRY             = false
   CC_SYMMETRY          = false
   METHOD               = eom-ccsd
   EE_SINGLETS          = [3]  ! Compute two EOM-EE singlet excited states
   EE_TRIPLETS          = [3]  ! Compute two EOM-EE triplet excited states
   CC_REF_PROP          = true ! Compute ground state properties
   CC_EOM_PROP          = true ! Compute excited state properties
   CC_OSFNO             = true
   GUI                  = 2
$end
--------------------------------------------------------------

             Standard Nuclear Orientation (Angstroms)
    I     Atom           X                Y                Z
 ----------------------------------------------------------------
    1      Li      0.0000000000     0.0000000000    -0.4250000000
    2      H       0.0000000000     0.0000000000     1.2750000000
 ----------------------------------------------------------------

    9      -7.8571449603      2.08e-09  Convergence criterion met
 Total energy in the final basis set =       -7.8571449603
 CCSD total energy          = -7.87942155
 EOMEE transition 1/A
 Total energy = -7.75226008 a.u.  Excitation energy = 3.46023949 eV.
 EOMEE transition 2/A
 Total energy = -7.70095245 a.u.  Excitation energy = 4.85639105 eV.
 EOMEE transition 3/A
 Total energy = -7.70095245 a.u.  Excitation energy = 4.85639107 eV.
 Excited state properties for  EOMEE-CCSD transition 1/A
 Excited state properties for  EOMEE-CCSD transition 2/A
 Excited state properties for  EOMEE-CCSD transition 3/A
 EOMEE transition 1/A
 Total energy = -7.77071123 a.u.  Excitation energy = 2.95815810 eV.
 EOMEE transition 2/A
 Total energy = -7.71827411 a.u.  Excitation energy = 4.38504468 eV.
 EOMEE transition 3/A
 Total energy = -7.71827411 a.u.  Excitation energy = 4.38504469 eV.
 Excited state properties for  EOMEE-CCSD transition 1/A
 Excited state properties for  EOMEE-CCSD transition 2/A
 Excited state properties for  EOMEE-CCSD transition 3/A

                    Orbital Energies (a.u.)
 --------------------------------------------------------------

 Alpha MOs
 -- Occupied --
 -2.3514  -0.2766

          Ground-State Mulliken Net Atomic Charges

     Atom                 Charge (a.u.)
  ----------------------------------------
      1 Li                   -0.018788
      2 H                     0.018788
  ----------------------------------------
  Sum of atomic charges =     0.000000

                    Cartesian Multipole Moments
 -----------------------------------------------------------------
    Charge (ESU x 10^10)
                 0.0000
    Dipole Moment (Debye)
         X      -0.0000      Y      -0.0000      Z      -4.6021
       Tot       4.6021
    Quadrupole Moments (Debye-Ang)
        XX      -5.5602     XY       0.0000     YY      -5.5602
        XZ      -0.0000     YZ      -0.0000     ZZ      -4.6129

 Total job time:  3.77s(wall), 5.63s(cpu)
        *  Thank you very much for using Q-Chem.  Have a nice day.  *
