 Q-Chem 5.4 (devel), Q-Chem, Inc., Pleasanton, CA (2021)
 Q-Chem 5.4.1 for Intel X86 EM64T Linux

User input:
--------------------------------------------------------------
$comment
Water molecule
$end

$molecule
0 1
O
H O 1.3
H O 1.3 H 104.5
$end

$rem
   n_frozen_core = 0
   print_qis = true
   BASIS                = sto-3g
!   SYMMETRY             = true
!   CC_SYMMETRY          = false
   METHOD               = eom-ccsd
   EE_SINGLETS          = [1,1,1,1] ! Compute two EOM-EE singlet excited states
   EE_TRIPLETS          = [1,1,1,1] ! Compute two EOM-EE triplet excited states
   CC_REF_PROP          = true ! Compute ground state properties
   CC_EOM_PROP          = true ! Compute excited state properties
!   CC_OSFNO             = true
   GUI                  = 2
$end
--------------------------------------------------------------

             Standard Nuclear Orientation (Angstroms)
    I     Atom           X                Y                Z
 ----------------------------------------------------------------
    1      O      -0.0000000000     0.0000000000     0.1591764928
    2      H      -1.0278964459    -0.0000000000    -0.6367059712
    3      H       1.0278964459    -0.0000000000    -0.6367059712
 ----------------------------------------------------------------

    8     -74.8361348178      1.03e-09  Convergence criterion met
 Total energy in the final basis set =      -74.8361348178
 CCSD total energy          = -74.94821419
 EOMEE transition 1/A1
 Total energy = -74.55513903 a.u.  Excitation energy = 10.69611912 eV.
 Excited state properties for  EOMEE-CCSD transition 1/A1
 EOMEE transition 1/A2
 Total energy = -74.69941285 a.u.  Excitation energy = 6.77022880 eV.
 Excited state properties for  EOMEE-CCSD transition 1/A2
 EOMEE transition 1/B1
 Total energy = -74.54116700 a.u.  Excitation energy = 11.07631742 eV.
 Excited state properties for  EOMEE-CCSD transition 1/B1
 EOMEE transition 1/B2
 Total energy = -74.75654468 a.u.  Excitation energy = 5.21559245 eV.
 Excited state properties for  EOMEE-CCSD transition 1/B2
 EOMEE transition 1/A1
 Total energy = -74.72448819 a.u.  Excitation energy = 6.08789408 eV.
 Excited state properties for  EOMEE-CCSD transition 1/A1
 EOMEE transition 1/A2
 Total energy = -74.72617313 a.u.  Excitation energy = 6.04204445 eV.
 Excited state properties for  EOMEE-CCSD transition 1/A2
 EOMEE transition 1/B1
 Total energy = -74.67558478 a.u.  Excitation energy = 7.41862346 eV.
 Excited state properties for  EOMEE-CCSD transition 1/B1
 EOMEE transition 1/B2
 Total energy = -74.78832938 a.u.  Excitation energy = 4.35068688 eV.
 Excited state properties for  EOMEE-CCSD transition 1/B2

             Orbital Energies (a.u.) and Symmetries
 --------------------------------------------------------------

 Alpha MOs, Restricted
 -- Occupied --
-20.291  -1.164  -0.470  -0.406  -0.392
  1 A1    2 A1    1 B1    3 A1    1 B2

 Beta MOs, Restricted
 -- Occupied --
-20.291  -1.164  -0.470  -0.406  -0.392
  1 A1    2 A1    1 B1    3 A1    1 B2

          Ground-State Mulliken Net Atomic Charges

     Atom                 Charge (a.u.)
  ----------------------------------------
      1 O                    -0.103153
      2 H                     0.051577
      3 H                     0.051577
  ----------------------------------------
  Sum of atomic charges =     0.000000

                    Cartesian Multipole Moments
 -----------------------------------------------------------------
    Charge (ESU x 10^10)
                -0.0000
    Dipole Moment (Debye)
         X       0.0000      Y       0.0000      Z      -0.9505
       Tot       0.9505
    Quadrupole Moments (Debye-Ang)
        XX      -4.6755     XY       0.0000     YY      -6.3359
        XZ       0.0000     YZ       0.0000     ZZ      -5.4786

 Total job time:  6.90s(wall), 20.21s(cpu)
        *  Thank you very much for using Q-Chem.  Have a nice day.  *
