 Q-Chem 5.4 (devel), Q-Chem, Inc., Pleasanton, CA (2021)
 Q-Chem 5.4.1 for Intel X86 EM64T Linux

User input:
--------------------------------------------------------------
$comment
Hydrogen molecule
$end

$molecule
0 1
H 0.0 0.0 0.0
H 0.0 0.0 0.8
$end

$rem
   print_qis = true
   BASIS                = 6-31g
   SYMMETRY             = false
   CC_SYMMETRY          = false
   METHOD               = eom-ccsd
   EE_SINGLETS          = [3]  ! Compute two EOM-EE singlet excited states
   EE_TRIPLETS          = [3]  ! Compute two EOM-EE triplet excited states
   CC_REF_PROP          = true ! Compute ground state properties
   CC_EOM_PROP          = true ! Compute excited state properties
!   CC_OSFNO             = true
   GUI                  = 2
$end
--------------------------------------------------------------

             Standard Nuclear Orientation (Angstroms)
    I     Atom           X                Y                Z
 ----------------------------------------------------------------
    1      H       0.0000000000     0.0000000000    -0.4000000000
    2      H       0.0000000000     0.0000000000     0.4000000000
 ----------------------------------------------------------------

    5      -1.1237129361      2.32e-10  Convergence criterion met
 Total energy in the final basis set =       -1.1237129361
 CCSD total energy          = -1.15002795
 EOMEE transition 1/A
 Total energy = -0.60562500 a.u.  Excitation energy = 14.81395769 eV.
 EOMEE transition 2/A
 Total energy = -0.09394580 a.u.  Excitation energy = 28.73745660 eV.
 EOMEE transition 3/A
 Total energy = 0.20723901 a.u.  Excitation energy = 36.93311220 eV.
 Excited state properties for  EOMEE-CCSD transition 1/A
 Excited state properties for  EOMEE-CCSD transition 2/A
 Excited state properties for  EOMEE-CCSD transition 3/A
 EOMEE transition 1/A
 Total energy = -0.78907981 a.u.  Excitation energy = 9.82189827 eV.
 EOMEE transition 2/A
 Total energy = -0.27116332 a.u.  Excitation energy = 23.91512280 eV.
 EOMEE transition 3/A
 Total energy = 0.15760552 a.u.  Excitation energy = 35.58251621 eV.
 Excited state properties for  EOMEE-CCSD transition 1/A
 Excited state properties for  EOMEE-CCSD transition 2/A
 Excited state properties for  EOMEE-CCSD transition 3/A

                    Orbital Energies (a.u.)
 --------------------------------------------------------------

 Alpha MOs
 -- Occupied --
 -0.5782

          Ground-State Mulliken Net Atomic Charges

     Atom                 Charge (a.u.)
  ----------------------------------------
      1 H                     0.000000
      2 H                    -0.000000
  ----------------------------------------
  Sum of atomic charges =     0.000000

                    Cartesian Multipole Moments
 -----------------------------------------------------------------
    Charge (ESU x 10^10)
                -0.0000
    Dipole Moment (Debye)
         X       0.0000      Y       0.0000      Z      -0.0000
       Tot       0.0000
    Quadrupole Moments (Debye-Ang)
        XX      -2.0975     XY       0.0000     YY      -2.0975
        XZ       0.0000     YZ       0.0000     ZZ      -1.6542

 Total job time:  2.57s(wall), 3.44s(cpu)
        *  Thank you very much for using Q-Chem.  Have a nice day.  *
