 Q-Chem 5.4 (devel), Q-Chem, Inc., Pleasanton, CA (2021)
 Q-Chem 5.4.1 for Intel X86 EM64T Linux

User input:
--------------------------------------------------------------
$comment
Hydrogen molecule
$end

$molecule
0 1
  Li        0.0000000000    0.0000000000    0.0000000000
  H         0.0000000000    0.0000000000    1.3000000000
$end

$rem
   n_frozen_core = 0
   print_qis = true
   BASIS                = sto-3g
   SYMMETRY             = false
   CC_SYMMETRY          = false
   METHOD               = eom-ccsd
   EE_SINGLETS          = [3]  ! Compute two EOM-EE singlet excited states
   EE_TRIPLETS          = [3]  ! Compute two EOM-EE triplet excited states
   CC_REF_PROP          = true ! Compute ground state properties
   CC_EOM_PROP          = true ! Compute excited state properties
   CC_OSFNO             = true
   GUI                  = 2
$end
--------------------------------------------------------------

             Standard Nuclear Orientation (Angstroms)
    I     Atom           X                Y                Z
 ----------------------------------------------------------------
    1      Li      0.0000000000     0.0000000000    -0.3250000000
    2      H       0.0000000000     0.0000000000     0.9750000000
 ----------------------------------------------------------------

    9      -7.8519538579      1.47e-09  Convergence criterion met
 Total energy in the final basis set =       -7.8519538579
 CCSD total energy          = -7.86913265
 EOMEE transition 1/A
 Total energy = -7.72410347 a.u.  Excitation energy = 3.94644475 eV.
 EOMEE transition 2/A
 Total energy = -7.66945388 a.u.  Excitation energy = 5.43353575 eV.
 EOMEE transition 3/A
 Total energy = -7.66945388 a.u.  Excitation energy = 5.43353577 eV.
 Excited state properties for  EOMEE-CCSD transition 1/A
 Excited state properties for  EOMEE-CCSD transition 2/A
 Excited state properties for  EOMEE-CCSD transition 3/A
 EOMEE transition 1/A
 Total energy = -7.73913285 a.u.  Excitation energy = 3.53747455 eV.
 EOMEE transition 2/A
 Total energy = -7.69534148 a.u.  Excitation energy = 4.72909835 eV.
 EOMEE transition 3/A
 Total energy = -7.69534148 a.u.  Excitation energy = 4.72909837 eV.
 Excited state properties for  EOMEE-CCSD transition 1/A
 Excited state properties for  EOMEE-CCSD transition 2/A
 Excited state properties for  EOMEE-CCSD transition 3/A

                    Orbital Energies (a.u.)
 --------------------------------------------------------------

 Alpha MOs
 -- Occupied --
 -2.3467  -0.3078

          Ground-State Mulliken Net Atomic Charges

     Atom                 Charge (a.u.)
  ----------------------------------------
      1 Li                   -0.016530
      2 H                     0.016530
  ----------------------------------------
  Sum of atomic charges =     0.000000

                    Cartesian Multipole Moments
 -----------------------------------------------------------------
    Charge (ESU x 10^10)
                -0.0000
    Dipole Moment (Debye)
         X       0.0000      Y       0.0000      Z      -4.6605
       Tot       4.6605
    Quadrupole Moments (Debye-Ang)
        XX      -5.3046     XY      -0.0000     YY      -5.3046
        XZ       0.0000     YZ       0.0000     ZZ      -5.4352

 Total job time:  3.63s(wall), 5.64s(cpu)
        *  Thank you very much for using Q-Chem.  Have a nice day.  *
