 Q-Chem 5.4 (devel), Q-Chem, Inc., Pleasanton, CA (2021)
 Q-Chem 5.4.1 for Intel X86 EM64T Linux

User input:
--------------------------------------------------------------
$comment
Hydrogen molecule
$end

$molecule
0 1
 H         0.0000000000    0.0000000000    0.0000000000
 H         0.0000000000    0.0000000000    1.5000000000
 H         2.4000000000    0.0000000000    0.0000000000
 H         2.4000000000    0.0000000000    1.5000000000
$end

$rem
   n_frozen_core = 0
   print_qis = true
   BASIS                = sto-3g
!   SYMMETRY             = true
!   CC_SYMMETRY          = false
   METHOD               = eom-ccsd
   EE_SINGLETS          = [1,1,1,1,1,1,1,1] ! Compute two EOM-EE singlet excited states
   EE_TRIPLETS          = [1,1,1,1,1,1,1,1] ! Compute two EOM-EE triplet excited states
   CC_REF_PROP          = true ! Compute ground state properties
   CC_EOM_PROP          = true ! Compute excited state properties
!   CC_OSFNO             = true
   GUI                  = 2
$end
--------------------------------------------------------------

             Standard Nuclear Orientation (Angstroms)
    I     Atom           X                Y                Z
 ----------------------------------------------------------------
    1      H       1.2000000000    -0.7500000000    -0.0000000000
    2      H       1.2000000000     0.7500000000     0.0000000000
    3      H      -1.2000000000    -0.7500000000    -0.0000000000
    4      H      -1.2000000000     0.7500000000     0.0000000000
 ----------------------------------------------------------------

    2      -1.8148993363      2.16e-16  Convergence criterion met
 Total energy in the final basis set =       -1.8148993363
 CCSD total energy          = -1.99201230
 EOMEE transition 1/Ag
 Total energy = -1.78541667 a.u.  Excitation energy = 5.62175292 eV.
 Excited state properties for  EOMEE-CCSD transition 1/Ag
 EOMEE transition 1/B1g
 Total energy = -1.49556454 a.u.  Excitation energy = 13.50903054 eV.
 Excited state properties for  EOMEE-CCSD transition 1/B1g
 EOMEE transition 1/B2u
 Total energy = -1.43782540 a.u.  Excitation energy = 15.08019246 eV.
 Excited state properties for  EOMEE-CCSD transition 1/B2u
 EOMEE transition 1/B3u
 Total energy = -1.32316395 a.u.  Excitation energy = 18.20028923 eV.
 Excited state properties for  EOMEE-CCSD transition 1/B3u
 EOMEE transition 1/Ag
 Total energy = -1.31728454 a.u.  Excitation energy = 18.36027619 eV.
 Excited state properties for  EOMEE-CCSD transition 1/Ag
 EOMEE transition 1/B1g
 Total energy = -1.89296867 a.u.  Excitation energy = 2.69511415 eV.
 Excited state properties for  EOMEE-CCSD transition 1/B1g
 EOMEE transition 1/B2u
 Total energy = -1.88331127 a.u.  Excitation energy = 2.95790549 eV.
 Excited state properties for  EOMEE-CCSD transition 1/B2u
 EOMEE transition 1/B3u
 Total energy = -1.78271116 a.u.  Excitation energy = 5.69537367 eV.
 Excited state properties for  EOMEE-CCSD transition 1/B3u

             Orbital Energies (a.u.) and Symmetries
 --------------------------------------------------------------

 Alpha MOs, Restricted
 -- Occupied --
 -0.385  -0.319
  1 Ag    1 B3u

 Beta MOs, Restricted
 -- Occupied --
 -0.385  -0.319
  1 Ag    1 B3u

          Ground-State Mulliken Net Atomic Charges

     Atom                 Charge (a.u.)
  ----------------------------------------
      1 H                    -0.000000
      2 H                    -0.000000
      3 H                    -0.000000
      4 H                    -0.000000
  ----------------------------------------
  Sum of atomic charges =     0.000000

                    Cartesian Multipole Moments
 -----------------------------------------------------------------
    Charge (ESU x 10^10)
                -0.0000
    Dipole Moment (Debye)
         X      -0.0000      Y       0.0000      Z      -0.0000
       Tot       0.0000
    Quadrupole Moments (Debye-Ang)
        XX      -3.7567     XY      -0.0000     YY      -2.5188
        XZ      -0.0000     YZ       0.0000     ZZ      -3.6806

 Total job time:  2.89s(wall), 7.85s(cpu)
        *  Thank you very much for using Q-Chem.  Have a nice day.  *
