 Q-Chem 5.4 (devel), Q-Chem, Inc., Pleasanton, CA (2021)
 Q-Chem 5.4.1 for Intel X86 EM64T Linux

User input:
--------------------------------------------------------------
$comment
Hydrogen molecule
$end

$molecule
0 1
  Li        0.0000000000    0.0000000000    0.0000000000
  H         0.0000000000    0.0000000000    1.9000000000
$end

$rem
   n_frozen_core = 0
   print_qis = true
   BASIS                = sto-3g
   SYMMETRY             = false
   CC_SYMMETRY          = false
   METHOD               = eom-ccsd
   EE_SINGLETS          = [3]  ! Compute two EOM-EE singlet excited states
   EE_TRIPLETS          = [3]  ! Compute two EOM-EE triplet excited states
   CC_REF_PROP          = true ! Compute ground state properties
   CC_EOM_PROP          = true ! Compute excited state properties
   CC_OSFNO             = true
   GUI                  = 2
$end
--------------------------------------------------------------

             Standard Nuclear Orientation (Angstroms)
    I     Atom           X                Y                Z
 ----------------------------------------------------------------
    1      Li      0.0000000000     0.0000000000    -0.4750000000
    2      H       0.0000000000     0.0000000000     1.4250000000
 ----------------------------------------------------------------

    9      -7.8411120409      3.86e-10  Convergence criterion met
 Total energy in the final basis set =       -7.8411120409
 CCSD total energy          = -7.86822536
 EOMEE transition 1/A
 Total energy = -7.75369339 a.u.  Excitation energy = 3.11657340 eV.
 EOMEE transition 2/A
 Total energy = -7.70457173 a.u.  Excitation energy = 4.45324165 eV.
 EOMEE transition 3/A
 Total energy = -7.70457173 a.u.  Excitation energy = 4.45324166 eV.
 Excited state properties for  EOMEE-CCSD transition 1/A
 Excited state properties for  EOMEE-CCSD transition 2/A
 Excited state properties for  EOMEE-CCSD transition 3/A
 EOMEE transition 1/A
 Total energy = -7.77509931 a.u.  Excitation energy = 2.53408877 eV.
 EOMEE transition 2/A
 Total energy = -7.71785879 a.u.  Excitation energy = 4.09168229 eV.
 EOMEE transition 3/A
 Total energy = -7.71785879 a.u.  Excitation energy = 4.09168230 eV.
 Excited state properties for  EOMEE-CCSD transition 1/A
 Excited state properties for  EOMEE-CCSD transition 2/A
 Excited state properties for  EOMEE-CCSD transition 3/A

                    Orbital Energies (a.u.)
 --------------------------------------------------------------

 Alpha MOs
 -- Occupied --
 -2.3578  -0.2589

          Ground-State Mulliken Net Atomic Charges

     Atom                 Charge (a.u.)
  ----------------------------------------
      1 Li                   -0.012542
      2 H                     0.012542
  ----------------------------------------
  Sum of atomic charges =     0.000000

                    Cartesian Multipole Moments
 -----------------------------------------------------------------
    Charge (ESU x 10^10)
                -0.0000
    Dipole Moment (Debye)
         X       0.0000      Y       0.0000      Z      -4.5375
       Tot       4.5375
    Quadrupole Moments (Debye-Ang)
        XX      -5.6895     XY       0.0000     YY      -5.6895
        XZ       0.0000     YZ      -0.0000     ZZ      -4.2670

 Total job time:  5.34s(wall), 5.93s(cpu)
        *  Thank you very much for using Q-Chem.  Have a nice day.  *
