 Q-Chem 5.4 (devel), Q-Chem, Inc., Pleasanton, CA (2021)
 Q-Chem 5.4.1 for Intel X86 EM64T Linux

User input:
--------------------------------------------------------------
$comment
Water molecule
$end

$molecule
0 1
O
H O 1.5
H O 1.5 H 104.5
$end

$rem
!   n_frozen_core = 0
   print_qis = true
   BASIS                = sto-3g
!   SYMMETRY             = true
!   CC_SYMMETRY          = false
   METHOD               = eom-ccsd
   EE_SINGLETS          = [1,1,1,1] ! Compute two EOM-EE singlet excited states
   EE_TRIPLETS          = [1,1,1,1] ! Compute two EOM-EE triplet excited states
   CC_REF_PROP          = true ! Compute ground state properties
   CC_EOM_PROP          = true ! Compute excited state properties
!   CC_OSFNO             = true
   GUI                  = 2
$end
--------------------------------------------------------------

             Standard Nuclear Orientation (Angstroms)
    I     Atom           X                Y                Z
 ----------------------------------------------------------------
    1      O      -0.0000000000     0.0000000000     0.1836651840
    2      H      -1.1860343606    -0.0000000000    -0.7346607360
    3      H       1.1860343606    -0.0000000000    -0.7346607360
 ----------------------------------------------------------------

    9     -74.7041568732      6.44e-11  Convergence criterion met
 Total energy in the final basis set =      -74.7041568732
 CCSD total energy          = -74.87244066
 EOMEE transition 1/A1
 Total energy = -74.54961070 a.u.  Excitation energy = 8.78464994 eV.
 Excited state properties for  EOMEE-CCSD transition 1/A1
 EOMEE transition 1/A2
 Total energy = -74.72293590 a.u.  Excitation energy = 4.06823150 eV.
 Excited state properties for  EOMEE-CCSD transition 1/A2
 EOMEE transition 1/B1
 Total energy = -74.56162598 a.u.  Excitation energy = 8.45769767 eV.
 Excited state properties for  EOMEE-CCSD transition 1/B1
 EOMEE transition 1/B2
 Total energy = -74.76314206 a.u.  Excitation energy = 2.97416620 eV.
 Excited state properties for  EOMEE-CCSD transition 1/B2
 EOMEE transition 1/A1
 Total energy = -74.75113509 a.u.  Excitation energy = 3.30089259 eV.
 Excited state properties for  EOMEE-CCSD transition 1/A1
 EOMEE transition 1/A2
 Total energy = -74.73985753 a.u.  Excitation energy = 3.60777059 eV.
 Excited state properties for  EOMEE-CCSD transition 1/A2
 EOMEE transition 1/B1
 Total energy = -74.70031278 a.u.  Excitation energy = 4.68383776 eV.
 Excited state properties for  EOMEE-CCSD transition 1/B1
 EOMEE transition 1/B2
 Total energy = -74.78053571 a.u.  Excitation energy = 2.50086077 eV.
 Excited state properties for  EOMEE-CCSD transition 1/B2

             Orbital Energies (a.u.) and Symmetries
 --------------------------------------------------------------

 Alpha MOs, Restricted
 -- Occupied --
-20.309  -1.143  -0.406  -0.400  -0.371
  1 A1    2 A1    1 B1    1 B2    3 A1

 Beta MOs, Restricted
 -- Occupied --
-20.309  -1.143  -0.406  -0.400  -0.371
  1 A1    2 A1    1 B1    1 B2    3 A1

          Ground-State Mulliken Net Atomic Charges

     Atom                 Charge (a.u.)
  ----------------------------------------
      1 O                    -0.037184
      2 H                     0.018592
      3 H                     0.018592
  ----------------------------------------
  Sum of atomic charges =     0.000000

                    Cartesian Multipole Moments
 -----------------------------------------------------------------
    Charge (ESU x 10^10)
                 0.0000
    Dipole Moment (Debye)
         X       0.0000      Y      -0.0000      Z      -0.5897
       Tot       0.5897
    Quadrupole Moments (Debye-Ang)
        XX      -4.8923     XY      -0.0000     YY      -6.3943
        XZ      -0.0000     YZ      -0.0000     ZZ      -5.4759

 Total job time:  9.22s(wall), 24.35s(cpu)
        *  Thank you very much for using Q-Chem.  Have a nice day.  *
