 Q-Chem 5.4 (devel), Q-Chem, Inc., Pleasanton, CA (2021)
 Q-Chem 5.4.1 for Intel X86 EM64T Linux

User input:
--------------------------------------------------------------
$comment
Water molecule
$end

$molecule
0 1
  H    0.5355326   -0.0489506    0.7341984
  O    0.0563012    0.0114119   -0.1303093
  H   -0.9024750   -0.0253772    0.1144725
$end

$rem
!   n_frozen_core = 0
!   print_qis = true
   JOBTYPE              = opt
   BASIS                = sto-3g
   SYMMETRY             = false
   CC_SYMMETRY          = false
   METHOD               = ccsd
!   EE_SINGLETS          = [5]  ! Compute two EOM-EE singlet excited states
!   EE_TRIPLETS          = [5]  ! Compute two EOM-EE triplet excited states
!   CC_REF_PROP          = true ! Compute ground state properties
!   CC_EOM_PROP          = true ! Compute excited state properties
!   CC_OSFNO             = true
   GUI                  = 2
$end

$opt
CONSTRAINT
stre  1  2  1.4
stre  2  3  1.4
ENDCONSTRAINT
$end
--------------------------------------------------------------

    8     -74.9650040615      1.66e-10  Convergence criterion met
 Total energy in the final basis set =      -74.9650040615
 CCSD total energy          = -75.01863668
    7     -74.9340567624      1.45e-09  Convergence criterion met
 Total energy in the final basis set =      -74.9340567624
 CCSD total energy          = -75.01043345
    7     -74.8558295013      2.06e-09  Convergence criterion met
 Total energy in the final basis set =      -74.8558295013
 CCSD total energy          = -74.96323917
    7     -74.7751777912      5.17e-09  Convergence criterion met
 Total energy in the final basis set =      -74.7751777912
 CCSD total energy          = -74.91394918
    6     -74.7730981588      7.04e-10  Convergence criterion met
 Total energy in the final basis set =      -74.7730981588
 CCSD total energy          = -74.91273936
    7     -74.7737114234      1.23e-11  Convergence criterion met
 Total energy in the final basis set =      -74.7737114234
 CCSD total energy          = -74.91314159

             Standard Nuclear Orientation (Angstroms)
    I     Atom           X                Y                Z
 ----------------------------------------------------------------
    1      H       1.0045709922    -0.6079200651     0.0000000000
    2      O      -0.0000162848     0.3673457175     0.0000000000
    3      H      -1.0044202615    -0.6081088413     0.0000000000
 ----------------------------------------------------------------

    6     -74.7743281222      2.29e-09  Convergence criterion met
 Total energy in the final basis set =      -74.7743281222
 CCSD total energy          = -74.91343246
 Final energy is   -74.913432455375485
 **  OPTIMIZATION CONVERGED  **

             Orbital Energies (a.u.) and Symmetries
 --------------------------------------------------------------

 Alpha MOs, Restricted
 -- Occupied --
-20.309  -1.156  -0.424  -0.406  -0.400
  1 A'    2 A'    3 A'    4 A'    1 A"

 Beta MOs, Restricted
 -- Occupied --
-20.309  -1.156  -0.424  -0.406  -0.400
  1 A'    2 A'    3 A'    4 A'    1 A"

          Ground-State Mulliken Net Atomic Charges

     Atom                 Charge (a.u.)
  ----------------------------------------
      1 H                     0.032332
      2 O                    -0.064664
      3 H                     0.032332
  ----------------------------------------
  Sum of atomic charges =     0.000000

                    Cartesian Multipole Moments
 -----------------------------------------------------------------
    Charge (ESU x 10^10)
                 0.0000
    Dipole Moment (Debye)
         X       0.0001      Y      -0.8135      Z       0.0000
       Tot       0.8135
    Quadrupole Moments (Debye-Ang)
        XX      -5.0004     XY       0.0000     YY      -5.5959
        XZ       0.0000     YZ      -0.0000     ZZ      -6.3704

 Total job time:  29.89s(wall), 31.08s(cpu)
        *  Thank you very much for using Q-Chem.  Have a nice day.  *
