 Q-Chem 5.4 (devel), Q-Chem, Inc., Pleasanton, CA (2021)
 Q-Chem 5.4.1 for Intel X86 EM64T Linux

User input:
--------------------------------------------------------------
$comment
Water molecule
$end

$molecule
0 1
O
H O 1.4
H O 1.4 H 104.5
$end

$rem
!   n_frozen_core = 0
   print_qis = true
   BASIS                = sto-3g
!   SYMMETRY             = true
!   CC_SYMMETRY          = false
   METHOD               = eom-ccsd
   EE_SINGLETS          = [1,1,1,1] ! Compute two EOM-EE singlet excited states
   EE_TRIPLETS          = [1,1,1,1] ! Compute two EOM-EE triplet excited states
   CC_REF_PROP          = true ! Compute ground state properties
   CC_EOM_PROP          = true ! Compute excited state properties
!   CC_OSFNO             = true
   GUI                  = 2
$end
--------------------------------------------------------------

             Standard Nuclear Orientation (Angstroms)
    I     Atom           X                Y                Z
 ----------------------------------------------------------------
    1      O      -0.0000000000     0.0000000000     0.1714208384
    2      H      -1.1069654032    -0.0000000000    -0.6856833536
    3      H       1.1069654032    -0.0000000000    -0.6856833536
 ----------------------------------------------------------------

    9     -74.7711672999      7.52e-12  Convergence criterion met
 Total energy in the final basis set =      -74.7711672999
 CCSD total energy          = -74.90942298
 EOMEE transition 1/A1
 Total energy = -74.55393925 a.u.  Excitation energy = 9.67320428 eV.
 Excited state properties for  EOMEE-CCSD transition 1/A1
 EOMEE transition 1/A2
 Total energy = -74.71505571 a.u.  Excitation energy = 5.28900250 eV.
 Excited state properties for  EOMEE-CCSD transition 1/A2
 EOMEE transition 1/B1
 Total energy = -74.55696120 a.u.  Excitation energy = 9.59097283 eV.
 Excited state properties for  EOMEE-CCSD transition 1/B1
 EOMEE transition 1/B2
 Total energy = -74.76370092 a.u.  Excitation energy = 3.96529890 eV.
 Excited state properties for  EOMEE-CCSD transition 1/B2
 EOMEE transition 1/A1
 Total energy = -74.74092701 a.u.  Excitation energy = 4.58500855 eV.
 Excited state properties for  EOMEE-CCSD transition 1/A1
 EOMEE transition 1/A2
 Total energy = -74.73720819 a.u.  Excitation energy = 4.68620270 eV.
 Excited state properties for  EOMEE-CCSD transition 1/A2
 EOMEE transition 1/B1
 Total energy = -74.69313831 a.u.  Excitation energy = 5.88540513 eV.
 Excited state properties for  EOMEE-CCSD transition 1/B1
 EOMEE transition 1/B2
 Total energy = -74.78812087 a.u.  Excitation energy = 3.30079844 eV.
 Excited state properties for  EOMEE-CCSD transition 1/B2

             Orbital Energies (a.u.) and Symmetries
 --------------------------------------------------------------

 Alpha MOs, Restricted
 -- Occupied --
-20.301  -1.151  -0.436  -0.396  -0.389
  1 A1    2 A1    1 B1    1 B2    3 A1

 Beta MOs, Restricted
 -- Occupied --
-20.301  -1.151  -0.436  -0.396  -0.389
  1 A1    2 A1    1 B1    1 B2    3 A1

          Ground-State Mulliken Net Atomic Charges

     Atom                 Charge (a.u.)
  ----------------------------------------
      1 O                    -0.065414
      2 H                     0.032707
      3 H                     0.032707
  ----------------------------------------
  Sum of atomic charges =     0.000000

                    Cartesian Multipole Moments
 -----------------------------------------------------------------
    Charge (ESU x 10^10)
                -0.0000
    Dipole Moment (Debye)
         X       0.0000      Y       0.0000      Z      -0.7625
       Tot       0.7625
    Quadrupole Moments (Debye-Ang)
        XX      -4.7752     XY      -0.0000     YY      -6.3712
        XZ      -0.0000     YZ       0.0000     ZZ      -5.4756

 Total job time:  7.18s(wall), 23.12s(cpu)
        *  Thank you very much for using Q-Chem.  Have a nice day.  *
