 Q-Chem 5.4 (devel), Q-Chem, Inc., Pleasanton, CA (2021)
 Q-Chem 5.4.1 for Intel X86 EM64T Linux

User input:
--------------------------------------------------------------
$comment
Water molecule
$end

$molecule
0 1
O
H O 1.4
H O 1.4 H 104.5
$end

$rem
   n_frozen_core = 0
   print_qis = true
   BASIS                = sto-3g
!   SYMMETRY             = true
!   CC_SYMMETRY          = false
   METHOD               = eom-ccsd
   EE_SINGLETS          = [1,1,1,1] ! Compute two EOM-EE singlet excited states
   EE_TRIPLETS          = [1,1,1,1] ! Compute two EOM-EE triplet excited states
   CC_REF_PROP          = true ! Compute ground state properties
   CC_EOM_PROP          = true ! Compute excited state properties
!   CC_OSFNO             = true
   GUI                  = 2
$end
--------------------------------------------------------------

             Standard Nuclear Orientation (Angstroms)
    I     Atom           X                Y                Z
 ----------------------------------------------------------------
    1      O      -0.0000000000     0.0000000000     0.1714208384
    2      H      -1.1069654032    -0.0000000000    -0.6856833536
    3      H       1.1069654032    -0.0000000000    -0.6856833536
 ----------------------------------------------------------------

    9     -74.7711672999      7.47e-12  Convergence criterion met
 Total energy in the final basis set =      -74.7711672999
 CCSD total energy          = -74.90946463
 EOMEE transition 1/A1
 Total energy = -74.55408975 a.u.  Excitation energy = 9.67024226 eV.
 Excited state properties for  EOMEE-CCSD transition 1/A1
 EOMEE transition 1/A2
 Total energy = -74.71506055 a.u.  Excitation energy = 5.29000396 eV.
 Excited state properties for  EOMEE-CCSD transition 1/A2
 EOMEE transition 1/B1
 Total energy = -74.55699899 a.u.  Excitation energy = 9.59107767 eV.
 Excited state properties for  EOMEE-CCSD transition 1/B1
 EOMEE transition 1/B2
 Total energy = -74.76372017 a.u.  Excitation energy = 3.96590831 eV.
 Excited state properties for  EOMEE-CCSD transition 1/B2
 EOMEE transition 1/A1
 Total energy = -74.74098135 a.u.  Excitation energy = 4.58466325 eV.
 Excited state properties for  EOMEE-CCSD transition 1/A1
 EOMEE transition 1/A2
 Total energy = -74.73725254 a.u.  Excitation energy = 4.68612926 eV.
 Excited state properties for  EOMEE-CCSD transition 1/A2
 EOMEE transition 1/B1
 Total energy = -74.69317271 a.u.  Excitation energy = 5.88560232 eV.
 Excited state properties for  EOMEE-CCSD transition 1/B1
 EOMEE transition 1/B2
 Total energy = -74.78814704 a.u.  Excitation energy = 3.30121933 eV.
 Excited state properties for  EOMEE-CCSD transition 1/B2

             Orbital Energies (a.u.) and Symmetries
 --------------------------------------------------------------

 Alpha MOs, Restricted
 -- Occupied --
-20.301  -1.151  -0.436  -0.396  -0.389
  1 A1    2 A1    1 B1    1 B2    3 A1

 Beta MOs, Restricted
 -- Occupied --
-20.301  -1.151  -0.436  -0.396  -0.389
  1 A1    2 A1    1 B1    1 B2    3 A1

          Ground-State Mulliken Net Atomic Charges

     Atom                 Charge (a.u.)
  ----------------------------------------
      1 O                    -0.065343
      2 H                     0.032671
      3 H                     0.032671
  ----------------------------------------
  Sum of atomic charges =     0.000000

                    Cartesian Multipole Moments
 -----------------------------------------------------------------
    Charge (ESU x 10^10)
                -0.0000
    Dipole Moment (Debye)
         X       0.0000      Y       0.0000      Z      -0.7623
       Tot       0.7623
    Quadrupole Moments (Debye-Ang)
        XX      -4.7756     XY      -0.0000     YY      -6.3713
        XZ      -0.0000     YZ      -0.0000     ZZ      -5.4758

 Total job time:  7.59s(wall), 23.09s(cpu)
        *  Thank you very much for using Q-Chem.  Have a nice day.  *
