 Q-Chem 5.4 (devel), Q-Chem, Inc., Pleasanton, CA (2021)
 Q-Chem 5.4.1 for Intel X86 EM64T Linux

User input:
--------------------------------------------------------------
$comment
Hydrogen molecule
$end

$molecule
0 1
  Li        0.0000000000    0.0000000000    0.0000000000
  H         0.0000000000    0.0000000000    1.5000000000
$end

$rem
   n_frozen_core = 0
   print_qis = true
   BASIS                = sto-3g
   SYMMETRY             = false
   CC_SYMMETRY          = false
   METHOD               = eom-ccsd
   EE_SINGLETS          = [3]  ! Compute two EOM-EE singlet excited states
   EE_TRIPLETS          = [3]  ! Compute two EOM-EE triplet excited states
   CC_REF_PROP          = true ! Compute ground state properties
   CC_EOM_PROP          = true ! Compute excited state properties
   CC_OSFNO             = true
   GUI                  = 2
$end
--------------------------------------------------------------

             Standard Nuclear Orientation (Angstroms)
    I     Atom           X                Y                Z
 ----------------------------------------------------------------
    1      Li      0.0000000000     0.0000000000    -0.3750000000
    2      H       0.0000000000     0.0000000000     1.1250000000
 ----------------------------------------------------------------

    8      -7.8633576216      6.82e-09  Convergence criterion met
 Total energy in the final basis set =       -7.8633576216
 CCSD total energy          = -7.88235306
 EOMEE transition 1/A
 Total energy = -7.74422463 a.u.  Excitation energy = 3.75866557 eV.
 EOMEE transition 2/A
 Total energy = -7.69120058 a.u.  Excitation energy = 5.20152334 eV.
 EOMEE transition 3/A
 Total energy = -7.69120058 a.u.  Excitation energy = 5.20152335 eV.
 Excited state properties for  EOMEE-CCSD transition 1/A
 Excited state properties for  EOMEE-CCSD transition 2/A
 Excited state properties for  EOMEE-CCSD transition 3/A
 EOMEE transition 1/A
 Total energy = -7.76057700 a.u.  Excitation energy = 3.31369502 eV.
 EOMEE transition 2/A
 Total energy = -7.71278063 a.u.  Excitation energy = 4.61430044 eV.
 EOMEE transition 3/A
 Total energy = -7.71278063 a.u.  Excitation energy = 4.61430046 eV.
 Excited state properties for  EOMEE-CCSD transition 1/A
 Excited state properties for  EOMEE-CCSD transition 2/A
 Excited state properties for  EOMEE-CCSD transition 3/A

                    Orbital Energies (a.u.)
 --------------------------------------------------------------

 Alpha MOs
 -- Occupied --
 -2.3468  -0.2936

          Ground-State Mulliken Net Atomic Charges

     Atom                 Charge (a.u.)
  ----------------------------------------
      1 Li                   -0.021346
      2 H                     0.021346
  ----------------------------------------
  Sum of atomic charges =     0.000000

                    Cartesian Multipole Moments
 -----------------------------------------------------------------
    Charge (ESU x 10^10)
                 0.0000
    Dipole Moment (Debye)
         X       0.0000      Y      -0.0000      Z      -4.6335
       Tot       4.6335
    Quadrupole Moments (Debye-Ang)
        XX      -5.4355     XY      -0.0000     YY      -5.4355
        XZ      -0.0000     YZ      -0.0000     ZZ      -5.0095

 Total job time:  4.49s(wall), 5.54s(cpu)
        *  Thank you very much for using Q-Chem.  Have a nice day.  *
