 Q-Chem 5.4 (devel), Q-Chem, Inc., Pleasanton, CA (2021)
 Q-Chem 5.4.1 for Intel X86 EM64T Linux

User input:
--------------------------------------------------------------
$comment
Hydrogen molecule
$end

$molecule
0 1
 H         0.0000000000    0.0000000000    0.0000000000
 H         0.0000000000    0.0000000000    1.5000000000
 H         1.9500000000    0.0000000000    0.0000000000
 H         1.9500000000    0.0000000000    1.5000000000
$end

$rem
   n_frozen_core = 0
   print_qis = true
   BASIS                = sto-3g
!   SYMMETRY             = true
!   CC_SYMMETRY          = false
   METHOD               = eom-ccsd
   EE_SINGLETS          = [1,1,1,1,1,1,1,1] ! Compute two EOM-EE singlet excited states
   EE_TRIPLETS          = [1,1,1,1,1,1,1,1] ! Compute two EOM-EE triplet excited states
   CC_REF_PROP          = true ! Compute ground state properties
   CC_EOM_PROP          = true ! Compute excited state properties
!   CC_OSFNO             = true
   GUI                  = 2
$end
--------------------------------------------------------------

             Standard Nuclear Orientation (Angstroms)
    I     Atom           X                Y                Z
 ----------------------------------------------------------------
    1      H       0.9750000000    -0.7500000000    -0.0000000000
    2      H       0.9750000000     0.7500000000     0.0000000000
    3      H      -0.9750000000    -0.7500000000    -0.0000000000
    4      H      -0.9750000000     0.7500000000     0.0000000000
 ----------------------------------------------------------------

    2      -1.7931319177      2.07e-16  Convergence criterion met
 Total energy in the final basis set =       -1.7931319177
 CCSD total energy          = -1.97852605
 EOMEE transition 1/Ag
 Total energy = -1.80122698 a.u.  Excitation energy = 4.82455312 eV.
 Excited state properties for  EOMEE-CCSD transition 1/Ag
 EOMEE transition 1/B1g
 Total energy = -1.56137264 a.u.  Excitation energy = 11.35132169 eV.
 Excited state properties for  EOMEE-CCSD transition 1/B1g
 EOMEE transition 1/B2u
 Total energy = -1.45412017 a.u.  Excitation energy = 14.26980971 eV.
 Excited state properties for  EOMEE-CCSD transition 1/B2u
 EOMEE transition 1/B3u
 Total energy = -1.36373070 a.u.  Excitation energy = 16.72943226 eV.
 Excited state properties for  EOMEE-CCSD transition 1/B3u
 EOMEE transition 1/Ag
 Total energy = -1.29954986 a.u.  Excitation energy = 18.47588185 eV.
 Excited state properties for  EOMEE-CCSD transition 1/Ag
 EOMEE transition 1/B1g
 Total energy = -1.90858955 a.u.  Excitation energy = 1.90306888 eV.
 Excited state properties for  EOMEE-CCSD transition 1/B1g
 EOMEE transition 1/B2u
 Total energy = -1.86215033 a.u.  Excitation energy = 3.16674431 eV.
 Excited state properties for  EOMEE-CCSD transition 1/B2u
 EOMEE transition 1/B3u
 Total energy = -1.78823047 a.u.  Excitation energy = 5.17820617 eV.
 Excited state properties for  EOMEE-CCSD transition 1/B3u

             Orbital Energies (a.u.) and Symmetries
 --------------------------------------------------------------

 Alpha MOs, Restricted
 -- Occupied --
 -0.413  -0.281
  1 Ag    1 B3u

 Beta MOs, Restricted
 -- Occupied --
 -0.413  -0.281
  1 Ag    1 B3u

          Ground-State Mulliken Net Atomic Charges

     Atom                 Charge (a.u.)
  ----------------------------------------
      1 H                     0.000000
      2 H                     0.000000
      3 H                     0.000000
      4 H                     0.000000
  ----------------------------------------
  Sum of atomic charges =     0.000000

                    Cartesian Multipole Moments
 -----------------------------------------------------------------
    Charge (ESU x 10^10)
                 0.0000
    Dipole Moment (Debye)
         X      -0.0000      Y      -0.0000      Z      -0.0000
       Tot       0.0000
    Quadrupole Moments (Debye-Ang)
        XX      -3.8449     XY       0.0000     YY      -2.5694
        XZ      -0.0000     YZ       0.0000     ZZ      -3.6548

 Total job time:  4.09s(wall), 6.61s(cpu)
        *  Thank you very much for using Q-Chem.  Have a nice day.  *
