 Q-Chem 5.4 (devel), Q-Chem, Inc., Pleasanton, CA (2021)
 Q-Chem 5.4.1 for Intel X86 EM64T Linux

User input:
--------------------------------------------------------------
$comment
Hydrogen molecule
$end

$molecule
0 1
H 0.0 0.0 0.0
H 0.0 0.0 1.3
$end

$rem
   print_qis = true
   BASIS                = 6-31g
   SYMMETRY             = false
   CC_SYMMETRY          = false
   METHOD               = eom-ccsd
   EE_SINGLETS          = [3]  ! Compute two EOM-EE singlet excited states
   EE_TRIPLETS          = [3]  ! Compute two EOM-EE triplet excited states
   CC_REF_PROP          = true ! Compute ground state properties
   CC_EOM_PROP          = true ! Compute excited state properties
!   CC_OSFNO             = true
   GUI                  = 2
$end
--------------------------------------------------------------

             Standard Nuclear Orientation (Angstroms)
    I     Atom           X                Y                Z
 ----------------------------------------------------------------
    1      H       0.0000000000     0.0000000000    -0.6500000000
    2      H       0.0000000000     0.0000000000     0.6500000000
 ----------------------------------------------------------------

    5      -1.0358261063      2.20e-12  Convergence criterion met
 Total energy in the final basis set =       -1.0358261063
 CCSD total energy          = -1.08060705
 EOMEE transition 1/A
 Total energy = -0.66224006 a.u.  Excitation energy = 11.38434464 eV.
 EOMEE transition 2/A
 Total energy = -0.48204778 a.u.  Excitation energy = 16.28762603 eV.
 EOMEE transition 3/A
 Total energy = 0.00391567 a.u.  Excitation energy = 29.51136398 eV.
 Excited state properties for  EOMEE-CCSD transition 1/A
 Excited state properties for  EOMEE-CCSD transition 2/A
 Excited state properties for  EOMEE-CCSD transition 3/A
 EOMEE transition 1/A
 Total energy = -0.93291781 a.u.  Excitation energy = 4.01882858 eV.
 EOMEE transition 2/A
 Total energy = -0.04927140 a.u.  Excitation energy = 28.06407021 eV.
 EOMEE transition 3/A
 Total energy = -0.02844926 a.u.  Excitation energy = 28.63066942 eV.
 Excited state properties for  EOMEE-CCSD transition 1/A
 Excited state properties for  EOMEE-CCSD transition 2/A
 Excited state properties for  EOMEE-CCSD transition 3/A

                    Orbital Energies (a.u.)
 --------------------------------------------------------------

 Alpha MOs
 -- Occupied --
 -0.4684

          Ground-State Mulliken Net Atomic Charges

     Atom                 Charge (a.u.)
  ----------------------------------------
      1 H                    -0.000000
      2 H                     0.000000
  ----------------------------------------
  Sum of atomic charges =     0.000000

                    Cartesian Multipole Moments
 -----------------------------------------------------------------
    Charge (ESU x 10^10)
                 0.0000
    Dipole Moment (Debye)
         X       0.0000      Y       0.0000      Z       0.0000
       Tot       0.0000
    Quadrupole Moments (Debye-Ang)
        XX      -2.5555     XY       0.0000     YY      -2.5555
        XZ       0.0000     YZ       0.0000     ZZ      -1.7254

 Total job time:  2.76s(wall), 3.83s(cpu)
        *  Thank you very much for using Q-Chem.  Have a nice day.  *
