 Q-Chem 5.4 (devel), Q-Chem, Inc., Pleasanton, CA (2021)
 Q-Chem 5.4.1 for Intel X86 EM64T Linux

User input:
--------------------------------------------------------------
$comment
Hydrogen molecule
$end

$molecule
0 1
H 0.0 0.0 0.0
H 0.0 0.0 0.4
$end

$rem
   print_qis = true
   BASIS                = 6-31g
   SYMMETRY             = false
   CC_SYMMETRY          = false
   METHOD               = eom-ccsd
   EE_SINGLETS          = [3]  ! Compute two EOM-EE singlet excited states
   EE_TRIPLETS          = [3]  ! Compute two EOM-EE triplet excited states
   CC_REF_PROP          = true ! Compute ground state properties
   CC_EOM_PROP          = true ! Compute excited state properties
!   CC_OSFNO             = true
   GUI                  = 2
$end
--------------------------------------------------------------

             Standard Nuclear Orientation (Angstroms)
    I     Atom           X                Y                Z
 ----------------------------------------------------------------
    1      H       0.0000000000     0.0000000000    -0.2000000000
    2      H       0.0000000000     0.0000000000     0.2000000000
 ----------------------------------------------------------------

    5      -0.9330042008      6.27e-09  Convergence criterion met
 Total energy in the final basis set =       -0.9330042008
 CCSD total energy          = -0.95067866
 EOMEE transition 1/A
 Total energy = -0.26122198 a.u.  Excitation energy = 18.76107043 eV.
 EOMEE transition 2/A
 Total energy = 0.06914491 a.u.  Excitation energy = 27.75081051 eV.
 EOMEE transition 3/A
 Total energy = 0.89185022 a.u.  Excitation energy = 50.13776065 eV.
 Excited state properties for  EOMEE-CCSD transition 1/A
 Excited state properties for  EOMEE-CCSD transition 2/A
 Excited state properties for  EOMEE-CCSD transition 3/A
 EOMEE transition 1/A
 Total energy = -0.34447294 a.u.  Excitation energy = 16.49569642 eV.
 EOMEE transition 2/A
 Total energy = -0.13572728 a.u.  Excitation energy = 22.17595471 eV.
 EOMEE transition 3/A
 Total energy = 0.79085832 a.u.  Excitation energy = 47.38963128 eV.
 Excited state properties for  EOMEE-CCSD transition 1/A
 Excited state properties for  EOMEE-CCSD transition 2/A
 Excited state properties for  EOMEE-CCSD transition 3/A

                    Orbital Energies (a.u.)
 --------------------------------------------------------------

 Alpha MOs
 -- Occupied --
 -0.7247

          Ground-State Mulliken Net Atomic Charges

     Atom                 Charge (a.u.)
  ----------------------------------------
      1 H                    -0.000000
      2 H                     0.000000
  ----------------------------------------
  Sum of atomic charges =     0.000000

                    Cartesian Multipole Moments
 -----------------------------------------------------------------
    Charge (ESU x 10^10)
                 0.0000
    Dipole Moment (Debye)
         X       0.0000      Y       0.0000      Z       0.0000
       Tot       0.0000
    Quadrupole Moments (Debye-Ang)
        XX      -1.5119     XY       0.0000     YY      -1.5119
        XZ       0.0000     YZ       0.0000     ZZ      -1.3779

 Total job time:  3.02s(wall), 3.97s(cpu)
        *  Thank you very much for using Q-Chem.  Have a nice day.  *
