 Q-Chem 5.4 (devel), Q-Chem, Inc., Pleasanton, CA (2021)
 Q-Chem 5.4.1 for Intel X86 EM64T Linux

User input:
--------------------------------------------------------------
$comment
Hydrogen molecule
$end

$molecule
0 1
 H         0.0000000000    0.0000000000    0.0000000000
 H         0.0000000000    0.0000000000    1.5000000000
 H         2.2000000000    0.0000000000    0.0000000000
 H         2.2000000000    0.0000000000    1.5000000000
$end

$rem
   n_frozen_core = 0
   print_qis = true
   BASIS                = sto-3g
!   SYMMETRY             = true
!   CC_SYMMETRY          = false
   METHOD               = eom-ccsd
   EE_SINGLETS          = [1,1,1,1,1,1,1,1] ! Compute two EOM-EE singlet excited states
   EE_TRIPLETS          = [1,1,1,1,1,1,1,1] ! Compute two EOM-EE triplet excited states
   CC_REF_PROP          = true ! Compute ground state properties
   CC_EOM_PROP          = true ! Compute excited state properties
!   CC_OSFNO             = true
   GUI                  = 2
$end
--------------------------------------------------------------

             Standard Nuclear Orientation (Angstroms)
    I     Atom           X                Y                Z
 ----------------------------------------------------------------
    1      H       1.1000000000    -0.7500000000    -0.0000000000
    2      H       1.1000000000     0.7500000000     0.0000000000
    3      H      -1.1000000000    -0.7500000000    -0.0000000000
    4      H      -1.1000000000     0.7500000000     0.0000000000
 ----------------------------------------------------------------

    2      -1.8086380811      4.61e-16  Convergence criterion met
 Total energy in the final basis set =       -1.8086380811
 CCSD total energy          = -1.98801032
 EOMEE transition 1/Ag
 Total energy = -1.78977225 a.u.  Excitation energy = 5.39433233 eV.
 Excited state properties for  EOMEE-CCSD transition 1/Ag
 EOMEE transition 1/B1g
 Total energy = -1.52169330 a.u.  Excitation energy = 12.68913142 eV.
 Excited state properties for  EOMEE-CCSD transition 1/B1g
 EOMEE transition 1/B2u
 Total energy = -1.44698412 a.u.  Excitation energy = 14.72207162 eV.
 Excited state properties for  EOMEE-CCSD transition 1/B2u
 EOMEE transition 1/B3u
 Total energy = -1.33725687 a.u.  Excitation energy = 17.70790210 eV.
 Excited state properties for  EOMEE-CCSD transition 1/B3u
 EOMEE transition 1/Ag
 Total energy = -1.31234353 a.u.  Excitation energy = 18.38582848 eV.
 Excited state properties for  EOMEE-CCSD transition 1/Ag
 EOMEE transition 1/B1g
 Total energy = -1.89721242 a.u.  Excitation energy = 2.47073659 eV.
 Excited state properties for  EOMEE-CCSD transition 1/B1g
 EOMEE transition 1/B2u
 Total energy = -1.87764401 a.u.  Excitation energy = 3.00322001 eV.
 Excited state properties for  EOMEE-CCSD transition 1/B2u
 EOMEE transition 1/B3u
 Total energy = -1.78425466 a.u.  Excitation energy = 5.54447360 eV.
 Excited state properties for  EOMEE-CCSD transition 1/B3u

             Orbital Energies (a.u.) and Symmetries
 --------------------------------------------------------------

 Alpha MOs, Restricted
 -- Occupied --
 -0.395  -0.305
  1 Ag    1 B3u

 Beta MOs, Restricted
 -- Occupied --
 -0.395  -0.305
  1 Ag    1 B3u

          Ground-State Mulliken Net Atomic Charges

     Atom                 Charge (a.u.)
  ----------------------------------------
      1 H                    -0.000000
      2 H                    -0.000000
      3 H                    -0.000000
      4 H                    -0.000000
  ----------------------------------------
  Sum of atomic charges =     0.000000

                    Cartesian Multipole Moments
 -----------------------------------------------------------------
    Charge (ESU x 10^10)
                -0.0000
    Dipole Moment (Debye)
         X      -0.0000      Y      -0.0000      Z       0.0000
       Tot       0.0000
    Quadrupole Moments (Debye-Ang)
        XX      -3.7960     XY       0.0000     YY      -2.5283
        XZ       0.0000     YZ       0.0000     ZZ      -3.6725

 Total job time:  2.75s(wall), 5.94s(cpu)
        *  Thank you very much for using Q-Chem.  Have a nice day.  *
