 Q-Chem 5.4 (devel), Q-Chem, Inc., Pleasanton, CA (2021)
 Q-Chem 5.4.1 for Intel X86 EM64T Linux

User input:
--------------------------------------------------------------
$comment
Hydrogen molecule
$end

$molecule
0 1
  Li        0.0000000000    0.0000000000    0.0000000000
  H         0.0000000000    0.0000000000    2.0000000000
$end

$rem
   n_frozen_core = 0
   print_qis = true
   BASIS                = sto-3g
   SYMMETRY             = false
   CC_SYMMETRY          = false
   METHOD               = eom-ccsd
   EE_SINGLETS          = [3]  ! Compute two EOM-EE singlet excited states
   EE_TRIPLETS          = [3]  ! Compute two EOM-EE triplet excited states
   CC_REF_PROP          = true ! Compute ground state properties
   CC_EOM_PROP          = true ! Compute excited state properties
   CC_OSFNO             = true
   GUI                  = 2
$end
--------------------------------------------------------------

             Standard Nuclear Orientation (Angstroms)
    I     Atom           X                Y                Z
 ----------------------------------------------------------------
    1      Li      0.0000000000     0.0000000000    -0.5000000000
    2      H       0.0000000000     0.0000000000     1.5000000000
 ----------------------------------------------------------------

    9      -7.8309055848      9.11e-10  Convergence criterion met
 Total energy in the final basis set =       -7.8309055848
 CCSD total energy          = -7.86106997
 EOMEE transition 1/A
 Total energy = -7.75292878 a.u.  Excitation energy = 2.94267138 eV.
 EOMEE transition 2/A
 Total energy = -7.70507105 a.u.  Excitation energy = 4.24494653 eV.
 EOMEE transition 3/A
 Total energy = -7.70507105 a.u.  Excitation energy = 4.24494654 eV.
 Excited state properties for  EOMEE-CCSD transition 1/A
 Excited state properties for  EOMEE-CCSD transition 2/A
 Excited state properties for  EOMEE-CCSD transition 3/A
 EOMEE transition 1/A
 Total energy = -7.77616228 a.u.  Excitation energy = 2.31045571 eV.
 EOMEE transition 2/A
 Total energy = -7.71655018 a.u.  Excitation energy = 3.93258347 eV.
 EOMEE transition 3/A
 Total energy = -7.71655018 a.u.  Excitation energy = 3.93258348 eV.
 Excited state properties for  EOMEE-CCSD transition 1/A
 Excited state properties for  EOMEE-CCSD transition 2/A
 Excited state properties for  EOMEE-CCSD transition 3/A

                    Orbital Energies (a.u.)
 --------------------------------------------------------------

 Alpha MOs
 -- Occupied --
 -2.3612  -0.2501

          Ground-State Mulliken Net Atomic Charges

     Atom                 Charge (a.u.)
  ----------------------------------------
      1 Li                   -0.009297
      2 H                     0.009297
  ----------------------------------------
  Sum of atomic charges =     0.000000

                    Cartesian Multipole Moments
 -----------------------------------------------------------------
    Charge (ESU x 10^10)
                 0.0000
    Dipole Moment (Debye)
         X      -0.0000      Y       0.0000      Z      -4.4788
       Tot       4.4788
    Quadrupole Moments (Debye-Ang)
        XX      -5.7600     XY      -0.0000     YY      -5.7600
        XZ       0.0000     YZ      -0.0000     ZZ      -4.1181

 Total job time:  3.98s(wall), 5.35s(cpu)
        *  Thank you very much for using Q-Chem.  Have a nice day.  *
