 Q-Chem 5.4 (devel), Q-Chem, Inc., Pleasanton, CA (2021)
 Q-Chem 5.4.1 for Intel X86 EM64T Linux

User input:
--------------------------------------------------------------
$comment
Water molecule
$end

$molecule
0 1
O
H O 1.1
H O 1.1 H 104.5
$end

$rem
!   n_frozen_core = 0
   print_qis = true
   BASIS                = sto-3g
!   SYMMETRY             = true
!   CC_SYMMETRY          = false
   METHOD               = eom-ccsd
   EE_SINGLETS          = [1,1,1,1] ! Compute two EOM-EE singlet excited states
   EE_TRIPLETS          = [1,1,1,1] ! Compute two EOM-EE triplet excited states
   CC_REF_PROP          = true ! Compute ground state properties
   CC_EOM_PROP          = true ! Compute excited state properties
!   CC_OSFNO             = true
   GUI                  = 2
$end
--------------------------------------------------------------

             Standard Nuclear Orientation (Angstroms)
    I     Atom           X                Y                Z
 ----------------------------------------------------------------
    1      O      -0.0000000000     0.0000000000     0.1346878016
    2      H      -0.8697585311    -0.0000000000    -0.5387512064
    3      H       0.8697585311    -0.0000000000    -0.5387512064
 ----------------------------------------------------------------

    8     -74.9418025664      5.73e-10  Convergence criterion met
 Total energy in the final basis set =      -74.9418025664
 CCSD total energy          = -75.01233950
 EOMEE transition 1/A1
 Total energy = -74.51725806 a.u.  Excitation energy = 13.47185101 eV.
 Excited state properties for  EOMEE-CCSD transition 1/A1
 EOMEE transition 1/A2
 Total energy = -74.61685023 a.u.  Excitation energy = 10.76181024 eV.
 Excited state properties for  EOMEE-CCSD transition 1/A2
 EOMEE transition 1/B1
 Total energy = -74.45554647 a.u.  Excitation energy = 15.15110888 eV.
 Excited state properties for  EOMEE-CCSD transition 1/B1
 EOMEE transition 1/B2
 Total energy = -74.69005616 a.u.  Excitation energy = 8.76977563 eV.
 Excited state properties for  EOMEE-CCSD transition 1/B2
 EOMEE transition 1/A1
 Total energy = -74.64589850 a.u.  Excitation energy = 9.97136670 eV.
 Excited state properties for  EOMEE-CCSD transition 1/A1
 EOMEE transition 1/A2
 Total energy = -74.65052511 a.u.  Excitation energy = 9.84547021 eV.
 Excited state properties for  EOMEE-CCSD transition 1/A2
 EOMEE transition 1/B1
 Total energy = -74.58332766 a.u.  Excitation energy = 11.67400580 eV.
 Excited state properties for  EOMEE-CCSD transition 1/B1
 EOMEE transition 1/B2
 Total energy = -74.73790410 a.u.  Excitation energy = 7.46776687 eV.
 Excited state properties for  EOMEE-CCSD transition 1/B2

             Orbital Energies (a.u.) and Symmetries
 --------------------------------------------------------------

 Alpha MOs, Restricted
 -- Occupied --
-20.262  -1.209  -0.549  -0.435  -0.387
  1 A1    2 A1    1 B1    3 A1    1 B2

 Beta MOs, Restricted
 -- Occupied --
-20.262  -1.209  -0.549  -0.435  -0.387
  1 A1    2 A1    1 B1    3 A1    1 B2

          Ground-State Mulliken Net Atomic Charges

     Atom                 Charge (a.u.)
  ----------------------------------------
      1 O                    -0.215422
      2 H                     0.107711
      3 H                     0.107711
  ----------------------------------------
  Sum of atomic charges =     0.000000

                    Cartesian Multipole Moments
 -----------------------------------------------------------------
    Charge (ESU x 10^10)
                 0.0000
    Dipole Moment (Debye)
         X      -0.0000      Y       0.0000      Z      -1.3484
       Tot       1.3484
    Quadrupole Moments (Debye-Ang)
        XX      -4.5362     XY      -0.0000     YY      -6.2237
        XZ       0.0000     YZ       0.0000     ZZ      -5.4751

 Total job time:  5.17s(wall), 14.99s(cpu)
        *  Thank you very much for using Q-Chem.  Have a nice day.  *
