 Q-Chem 5.4 (devel), Q-Chem, Inc., Pleasanton, CA (2021)
 Q-Chem 5.4.1 for Intel X86 EM64T Linux

User input:
--------------------------------------------------------------
$comment
Water molecule
$end

$molecule
0 1
O
H O 0.9
H O 0.9 H 104.5
$end

$rem
!   n_frozen_core = 0
   print_qis = true
   BASIS                = sto-3g
!   SYMMETRY             = true
!   CC_SYMMETRY          = false
   METHOD               = eom-ccsd
   EE_SINGLETS          = [1,1,1,1] ! Compute two EOM-EE singlet excited states
   EE_TRIPLETS          = [1,1,1,1] ! Compute two EOM-EE triplet excited states
   CC_REF_PROP          = true ! Compute ground state properties
   CC_EOM_PROP          = true ! Compute excited state properties
!   CC_OSFNO             = true
   GUI                  = 2
$end
--------------------------------------------------------------

             Standard Nuclear Orientation (Angstroms)
    I     Atom           X                Y                Z
 ----------------------------------------------------------------
    1      O      -0.0000000000     0.0000000000     0.1101991104
    2      H      -0.7116206164    -0.0000000000    -0.4407964416
    3      H       0.7116206164    -0.0000000000    -0.4407964416
 ----------------------------------------------------------------

    8     -74.9450210087      8.74e-12  Convergence criterion met
 Total energy in the final basis set =      -74.9450210087
 CCSD total energy          = -74.98751454
 EOMEE transition 1/A1
 Total energy = -74.33737775 a.u.  Excitation energy = 17.69112175 eV.
 Excited state properties for  EOMEE-CCSD transition 1/A1
 EOMEE transition 1/A2
 Total energy = -74.37414539 a.u.  Excitation energy = 16.69062339 eV.
 Excited state properties for  EOMEE-CCSD transition 1/A2
 EOMEE transition 1/B1
 Total energy = -74.22083884 a.u.  Excitation energy = 20.86230664 eV.
 Excited state properties for  EOMEE-CCSD transition 1/B1
 EOMEE transition 1/B2
 Total energy = -74.46480849 a.u.  Excitation energy = 14.22355477 eV.
 Excited state properties for  EOMEE-CCSD transition 1/B2
 EOMEE transition 1/A1
 Total energy = -74.42228176 a.u.  Excitation energy = 15.38076612 eV.
 Excited state properties for  EOMEE-CCSD transition 1/A1
 EOMEE transition 1/A2
 Total energy = -74.41144664 a.u.  Excitation energy = 15.67560469 eV.
 Excited state properties for  EOMEE-CCSD transition 1/A2
 EOMEE transition 1/B1
 Total energy = -74.33505693 a.u.  Excitation energy = 17.75427451 eV.
 Excited state properties for  EOMEE-CCSD transition 1/B1
 EOMEE transition 1/B2
 Total energy = -74.52936838 a.u.  Excitation energy = 12.46679081 eV.
 Excited state properties for  EOMEE-CCSD transition 1/B2

             Orbital Energies (a.u.) and Symmetries
 --------------------------------------------------------------

 Alpha MOs, Restricted
 -- Occupied --
-20.236  -1.300  -0.649  -0.460  -0.396
  1 A1    2 A1    1 B1    3 A1    1 B2

 Beta MOs, Restricted
 -- Occupied --
-20.236  -1.300  -0.649  -0.460  -0.396
  1 A1    2 A1    1 B1    3 A1    1 B2

          Ground-State Mulliken Net Atomic Charges

     Atom                 Charge (a.u.)
  ----------------------------------------
      1 O                    -0.396917
      2 H                     0.198458
      3 H                     0.198458
  ----------------------------------------
  Sum of atomic charges =     0.000000

                    Cartesian Multipole Moments
 -----------------------------------------------------------------
    Charge (ESU x 10^10)
                 0.0000
    Dipole Moment (Debye)
         X       0.0000      Y      -0.0000      Z      -1.7094
       Tot       1.7094
    Quadrupole Moments (Debye-Ang)
        XX      -4.4958     XY       0.0000     YY      -6.0542
        XZ      -0.0000     YZ      -0.0000     ZZ      -5.4313

 Total job time:  7.71s(wall), 13.48s(cpu)
        *  Thank you very much for using Q-Chem.  Have a nice day.  *
