 Q-Chem 5.4 (devel), Q-Chem, Inc., Pleasanton, CA (2021)
 Q-Chem 5.4.1 for Intel X86 EM64T Linux

User input:
--------------------------------------------------------------
$comment
Water molecule
$end

$molecule
0 1
  H    0.5355326   -0.0489506    0.7341984
  O    0.0563012    0.0114119   -0.1303093
  H   -0.9024750   -0.0253772    0.1144725
$end

$rem
!   n_frozen_core = 0
!   print_qis = true
   JOBTYPE              = opt
   BASIS                = sto-3g
   SYMMETRY             = false
   CC_SYMMETRY          = false
   METHOD               = ccsd
!   EE_SINGLETS          = [5]  ! Compute two EOM-EE singlet excited states
!   EE_TRIPLETS          = [5]  ! Compute two EOM-EE triplet excited states
!   CC_REF_PROP          = true ! Compute ground state properties
!   CC_EOM_PROP          = true ! Compute excited state properties
!   CC_OSFNO             = true
   GUI                  = 2
$end

$opt
CONSTRAINT
stre  1  2  0.8
stre  2  3  0.8
ENDCONSTRAINT
$end
--------------------------------------------------------------

    8     -74.9650040615      1.66e-10  Convergence criterion met
 Total energy in the final basis set =      -74.9650040615
 CCSD total energy          = -75.01863668
    7     -74.9299507483      7.99e-10  Convergence criterion met
 Total energy in the final basis set =      -74.9299507483
 CCSD total energy          = -74.96913790
    6     -74.8597109684      9.76e-09  Convergence criterion met
 Total energy in the final basis set =      -74.8597109684
 CCSD total energy          = -74.89199846
    6     -74.8509825519      3.49e-11  Convergence criterion met
 Total energy in the final basis set =      -74.8509825519
 CCSD total energy          = -74.88289796
    6     -74.8508705466      1.84e-10  Convergence criterion met
 Total energy in the final basis set =      -74.8508705466
 CCSD total energy          = -74.88301243
    6     -74.8508140816      6.63e-12  Convergence criterion met
 Total energy in the final basis set =      -74.8508140816
 CCSD total energy          = -74.88324739

             Standard Nuclear Orientation (Angstroms)
    I     Atom           X                Y                Z
 ----------------------------------------------------------------
    1      H       0.6400781806    -0.4428304155     0.0000000000
    2      O       0.0000167340     0.0370899762     0.0000000000
    3      H      -0.6399604687    -0.4429427497     0.0000000000
 ----------------------------------------------------------------

    6     -74.8505752642      5.82e-12  Convergence criterion met
 Total energy in the final basis set =      -74.8505752642
 CCSD total energy          = -74.88296673
 Final energy is   -74.882966733564473
 **  OPTIMIZATION CONVERGED  **

             Orbital Energies (a.u.) and Symmetries
 --------------------------------------------------------------

 Alpha MOs, Restricted
 -- Occupied --
-20.233  -1.367  -0.714  -0.471  -0.411
  1 A'    2 A'    3 A'    4 A'    1 A"

 Beta MOs, Restricted
 -- Occupied --
-20.233  -1.367  -0.714  -0.471  -0.411
  1 A'    2 A'    3 A'    4 A'    1 A"

          Ground-State Mulliken Net Atomic Charges

     Atom                 Charge (a.u.)
  ----------------------------------------
      1 H                     0.265459
      2 O                    -0.530919
      3 H                     0.265459
  ----------------------------------------
  Sum of atomic charges =     0.000000

                    Cartesian Multipole Moments
 -----------------------------------------------------------------
    Charge (ESU x 10^10)
                 0.0000
    Dipole Moment (Debye)
         X       0.0002      Y      -1.8351      Z      -0.0000
       Tot       1.8351
    Quadrupole Moments (Debye-Ang)
        XX      -4.4636     XY       0.0000     YY      -5.1905
        XZ       0.0000     YZ      -0.0000     ZZ      -5.9485

 Total job time:  23.36s(wall), 29.40s(cpu)
        *  Thank you very much for using Q-Chem.  Have a nice day.  *
