 Q-Chem 5.4 (devel), Q-Chem, Inc., Pleasanton, CA (2021)
 Q-Chem 5.4.1 for Intel X86 EM64T Linux

User input:
--------------------------------------------------------------
$comment
Water molecule
$end

$molecule
0 1
O
H O 0.8
H O 0.8 H 104.5
$end

$rem
   n_frozen_core = 0
   print_qis = true
   BASIS                = sto-3g
!   SYMMETRY             = true
!   CC_SYMMETRY          = false
   METHOD               = eom-ccsd
   EE_SINGLETS          = [1,1,1,1] ! Compute two EOM-EE singlet excited states
   EE_TRIPLETS          = [1,1,1,1] ! Compute two EOM-EE triplet excited states
   CC_REF_PROP          = true ! Compute ground state properties
   CC_EOM_PROP          = true ! Compute excited state properties
!   CC_OSFNO             = true
   GUI                  = 2
$end
--------------------------------------------------------------

             Standard Nuclear Orientation (Angstroms)
    I     Atom           X                Y                Z
 ----------------------------------------------------------------
    1      O      -0.0000000000     0.0000000000     0.0979547648
    2      H      -0.6325516590    -0.0000000000    -0.3918190592
    3      H       0.6325516590    -0.0000000000    -0.3918190592
 ----------------------------------------------------------------

    8     -74.8502270641      7.51e-11  Convergence criterion met
 Total energy in the final basis set =      -74.8502270641
 CCSD total energy          = -74.88293943
 EOMEE transition 1/A1
 Total energy = -74.12914030 a.u.  Excitation energy = 20.51191725 eV.
 Excited state properties for  EOMEE-CCSD transition 1/A1
 EOMEE transition 1/A2
 Total energy = -74.12344325 a.u.  Excitation energy = 20.66694207 eV.
 Excited state properties for  EOMEE-CCSD transition 1/A2
 EOMEE transition 1/B1
 Total energy = -73.98075352 a.u.  Excitation energy = 24.54972710 eV.
 Excited state properties for  EOMEE-CCSD transition 1/B1
 EOMEE transition 1/B2
 Total energy = -74.23024793 a.u.  Excitation energy = 17.76063873 eV.
 Excited state properties for  EOMEE-CCSD transition 1/B2
 EOMEE transition 1/A1
 Total energy = -74.19489589 a.u.  Excitation energy = 18.72261678 eV.
 Excited state properties for  EOMEE-CCSD transition 1/A1
 EOMEE transition 1/A2
 Total energy = -74.16138402 a.u.  Excitation energy = 19.63452110 eV.
 Excited state properties for  EOMEE-CCSD transition 1/A2
 EOMEE transition 1/B1
 Total energy = -74.08937393 a.u.  Excitation energy = 21.59401529 eV.
 Excited state properties for  EOMEE-CCSD transition 1/B1
 EOMEE transition 1/B2
 Total energy = -74.30260120 a.u.  Excitation energy = 15.79180612 eV.
 Excited state properties for  EOMEE-CCSD transition 1/B2

             Orbital Energies (a.u.) and Symmetries
 --------------------------------------------------------------

 Alpha MOs, Restricted
 -- Occupied --
-20.235  -1.370  -0.710  -0.475  -0.412
  1 A1    2 A1    1 B1    3 A1    1 B2

 Beta MOs, Restricted
 -- Occupied --
-20.235  -1.370  -0.710  -0.475  -0.412
  1 A1    2 A1    1 B1    3 A1    1 B2

          Ground-State Mulliken Net Atomic Charges

     Atom                 Charge (a.u.)
  ----------------------------------------
      1 O                    -0.528352
      2 H                     0.264176
      3 H                     0.264176
  ----------------------------------------
  Sum of atomic charges =     0.000000

                    Cartesian Multipole Moments
 -----------------------------------------------------------------
    Charge (ESU x 10^10)
                -0.0000
    Dipole Moment (Debye)
         X       0.0000      Y       0.0000      Z      -1.8509
       Tot       1.8509
    Quadrupole Moments (Debye-Ang)
        XX      -4.5122     XY       0.0000     YY      -5.9499
        XZ      -0.0000     YZ       0.0000     ZZ      -5.3863

 Total job time:  7.80s(wall), 15.57s(cpu)
        *  Thank you very much for using Q-Chem.  Have a nice day.  *
