 Q-Chem 5.4 (devel), Q-Chem, Inc., Pleasanton, CA (2021)
 Q-Chem 5.4.1 for Intel X86 EM64T Linux

User input:
--------------------------------------------------------------
$comment
Hydrogen molecule
$end

$molecule
0 1
  Li        0.0000000000    0.0000000000    0.0000000000
  H         0.0000000000    0.0000000000    1.0000000000
$end

$rem
   n_frozen_core = 0
   print_qis = true
   BASIS                = sto-3g
   SYMMETRY             = false
   CC_SYMMETRY          = false
   METHOD               = eom-ccsd
   EE_SINGLETS          = [3]  ! Compute two EOM-EE singlet excited states
   EE_TRIPLETS          = [3]  ! Compute two EOM-EE triplet excited states
   CC_REF_PROP          = true ! Compute ground state properties
   CC_EOM_PROP          = true ! Compute excited state properties
   CC_OSFNO             = true
   GUI                  = 2
$end
--------------------------------------------------------------

             Standard Nuclear Orientation (Angstroms)
    I     Atom           X                Y                Z
 ----------------------------------------------------------------
    1      Li      0.0000000000     0.0000000000    -0.2500000000
    2      H       0.0000000000     0.0000000000     0.7500000000
 ----------------------------------------------------------------

    9      -7.7673621356      9.44e-09  Convergence criterion met
 Total energy in the final basis set =       -7.7673621356
 CCSD total energy          = -7.78445473
 EOMEE transition 1/A
 Total energy = -7.64446521 a.u.  Excitation energy = 3.80930842 eV.
 EOMEE transition 2/A
 Total energy = -7.58591533 a.u.  Excitation energy = 5.40253181 eV.
 EOMEE transition 3/A
 Total energy = -7.58591533 a.u.  Excitation energy = 5.40253182 eV.
 Excited state properties for  EOMEE-CCSD transition 1/A
 Excited state properties for  EOMEE-CCSD transition 2/A
 Excited state properties for  EOMEE-CCSD transition 3/A
 EOMEE transition 1/A
 Total energy = -7.65893980 a.u.  Excitation energy = 3.41543482 eV.
 EOMEE transition 2/A
 Total energy = -7.61857564 a.u.  Excitation energy = 4.51379947 eV.
 EOMEE transition 3/A
 Total energy = -7.61857564 a.u.  Excitation energy = 4.51379948 eV.
 Excited state properties for  EOMEE-CCSD transition 1/A
 Excited state properties for  EOMEE-CCSD transition 2/A
 Excited state properties for  EOMEE-CCSD transition 3/A

                    Orbital Energies (a.u.)
 --------------------------------------------------------------

 Alpha MOs
 -- Occupied --
 -2.3709  -0.3167

          Ground-State Mulliken Net Atomic Charges

     Atom                 Charge (a.u.)
  ----------------------------------------
      1 Li                   -0.003228
      2 H                     0.003228
  ----------------------------------------
  Sum of atomic charges =     0.000000

                    Cartesian Multipole Moments
 -----------------------------------------------------------------
    Charge (ESU x 10^10)
                 0.0000
    Dipole Moment (Debye)
         X      -0.0000      Y       0.0000      Z      -4.7239
       Tot       4.7239
    Quadrupole Moments (Debye-Ang)
        XX      -5.1410     XY       0.0000     YY      -5.1410
        XZ      -0.0000     YZ       0.0000     ZZ      -6.1207

 Total job time:  3.52s(wall), 5.16s(cpu)
        *  Thank you very much for using Q-Chem.  Have a nice day.  *
