 Q-Chem 5.4 (devel), Q-Chem, Inc., Pleasanton, CA (2021)
 Q-Chem 5.4.1 for Intel X86 EM64T Linux

User input:
--------------------------------------------------------------
$comment
Hydrogen molecule
$end

$molecule
0 1
H 0.0 0.0 0.0
H 0.0 0.0 0.9
$end

$rem
   print_qis = true
   BASIS                = 6-31g
   SYMMETRY             = false
   CC_SYMMETRY          = false
   METHOD               = eom-ccsd
   EE_SINGLETS          = [3]  ! Compute two EOM-EE singlet excited states
   EE_TRIPLETS          = [3]  ! Compute two EOM-EE triplet excited states
   CC_REF_PROP          = true ! Compute ground state properties
   CC_EOM_PROP          = true ! Compute excited state properties
!   CC_OSFNO             = true
   GUI                  = 2
$end
--------------------------------------------------------------

             Standard Nuclear Orientation (Angstroms)
    I     Atom           X                Y                Z
 ----------------------------------------------------------------
    1      H       0.0000000000     0.0000000000    -0.4500000000
    2      H       0.0000000000     0.0000000000     0.4500000000
 ----------------------------------------------------------------

    5      -1.1116863741      8.20e-12  Convergence criterion met
 Total energy in the final basis set =       -1.1116863741
 CCSD total energy          = -1.14060260
 EOMEE transition 1/A
 Total energy = -0.62503610 a.u.  Excitation energy = 14.02927820 eV.
 EOMEE transition 2/A
 Total energy = -0.21963392 a.u.  Excitation energy = 25.06083238 eV.
 EOMEE transition 3/A
 Total energy = -0.06887330 a.u.  Excitation energy = 29.16323763 eV.
 Excited state properties for  EOMEE-CCSD transition 1/A
 Excited state properties for  EOMEE-CCSD transition 2/A
 Excited state properties for  EOMEE-CCSD transition 3/A
 EOMEE transition 1/A
 Total energy = -0.83250884 a.u.  Excitation energy = 8.38365779 eV.
 EOMEE transition 2/A
 Total energy = -0.22636391 a.u.  Excitation energy = 24.87770008 eV.
 EOMEE transition 3/A
 Total energy = 0.08080212 a.u.  Excitation energy = 33.23611297 eV.
 Excited state properties for  EOMEE-CCSD transition 1/A
 Excited state properties for  EOMEE-CCSD transition 2/A
 Excited state properties for  EOMEE-CCSD transition 3/A

                    Orbital Energies (a.u.)
 --------------------------------------------------------------

 Alpha MOs
 -- Occupied --
 -0.5515

          Ground-State Mulliken Net Atomic Charges

     Atom                 Charge (a.u.)
  ----------------------------------------
      1 H                    -0.000000
      2 H                     0.000000
  ----------------------------------------
  Sum of atomic charges =     0.000000

                    Cartesian Multipole Moments
 -----------------------------------------------------------------
    Charge (ESU x 10^10)
                 0.0000
    Dipole Moment (Debye)
         X       0.0000      Y       0.0000      Z       0.0000
       Tot       0.0000
    Quadrupole Moments (Debye-Ang)
        XX      -2.2202     XY       0.0000     YY      -2.2202
        XZ       0.0000     YZ       0.0000     ZZ      -1.6887

 Total job time:  2.43s(wall), 3.62s(cpu)
        *  Thank you very much for using Q-Chem.  Have a nice day.  *
