 Q-Chem 5.4 (devel), Q-Chem, Inc., Pleasanton, CA (2021)
 Q-Chem 5.4.1 for Intel X86 EM64T Linux

User input:
--------------------------------------------------------------
$comment
Hydrogen molecule
$end

$molecule
0 1
H 0.0 0.0 0.0
H 0.0 0.0 1.6
$end

$rem
   print_qis = true
   BASIS                = 6-31g
   SYMMETRY             = false
   CC_SYMMETRY          = false
   METHOD               = eom-ccsd
   EE_SINGLETS          = [3]  ! Compute two EOM-EE singlet excited states
   EE_TRIPLETS          = [3]  ! Compute two EOM-EE triplet excited states
   CC_REF_PROP          = true ! Compute ground state properties
   CC_EOM_PROP          = true ! Compute excited state properties
!   CC_OSFNO             = true
   GUI                  = 2
$end
--------------------------------------------------------------

             Standard Nuclear Orientation (Angstroms)
    I     Atom           X                Y                Z
 ----------------------------------------------------------------
    1      H       0.0000000000     0.0000000000    -0.8000000000
    2      H       0.0000000000     0.0000000000     0.8000000000
 ----------------------------------------------------------------

    5      -0.9794695472      1.32e-12  Convergence criterion met
 Total energy in the final basis set =       -0.9794695472
 CCSD total energy          = -1.04343174
 EOMEE transition 1/A
 Total energy = -0.66990929 a.u.  Excitation energy = 10.16406269 eV.
 EOMEE transition 2/A
 Total energy = -0.57565120 a.u.  Excitation energy = 12.72895589 eV.
 EOMEE transition 3/A
 Total energy = -0.00459523 a.u.  Excitation energy = 28.26817912 eV.
 Excited state properties for  EOMEE-CCSD transition 1/A
 Excited state properties for  EOMEE-CCSD transition 2/A
 Excited state properties for  EOMEE-CCSD transition 3/A
 EOMEE transition 1/A
 Total energy = -0.96666043 a.u.  Excitation energy = 2.08905341 eV.
 EOMEE transition 2/A
 Total energy = -0.02244608 a.u.  Excitation energy = 27.78243281 eV.
 EOMEE transition 3/A
 Total energy = -0.00981520 a.u.  Excitation energy = 28.12613631 eV.
 Excited state properties for  EOMEE-CCSD transition 1/A
 Excited state properties for  EOMEE-CCSD transition 2/A
 Excited state properties for  EOMEE-CCSD transition 3/A

                    Orbital Energies (a.u.)
 --------------------------------------------------------------

 Alpha MOs
 -- Occupied --
 -0.4234

          Ground-State Mulliken Net Atomic Charges

     Atom                 Charge (a.u.)
  ----------------------------------------
      1 H                     0.000000
      2 H                     0.000000
  ----------------------------------------
  Sum of atomic charges =     0.000000

                    Cartesian Multipole Moments
 -----------------------------------------------------------------
    Charge (ESU x 10^10)
                 0.0000
    Dipole Moment (Debye)
         X       0.0000      Y       0.0000      Z      -0.0000
       Tot       0.0000
    Quadrupole Moments (Debye-Ang)
        XX      -2.6423     XY       0.0000     YY      -2.6423
        XZ       0.0000     YZ       0.0000     ZZ      -1.7663

 Total job time:  3.50s(wall), 3.55s(cpu)
        *  Thank you very much for using Q-Chem.  Have a nice day.  *
