 Q-Chem 5.4 (devel), Q-Chem, Inc., Pleasanton, CA (2021)
 Q-Chem 5.4.1 for Intel X86 EM64T Linux

User input:
--------------------------------------------------------------
$comment
Water molecule
$end

$molecule
0 1
  H    0.5355326   -0.0489506    0.7341984
  O    0.0563012    0.0114119   -0.1303093
  H   -0.9024750   -0.0253772    0.1144725
$end

$rem
!   n_frozen_core = 0
!   print_qis = true
   JOBTYPE              = opt
   BASIS                = sto-3g
   SYMMETRY             = false
   CC_SYMMETRY          = false
   METHOD               = ccsd
!   EE_SINGLETS          = [5]  ! Compute two EOM-EE singlet excited states
!   EE_TRIPLETS          = [5]  ! Compute two EOM-EE triplet excited states
!   CC_REF_PROP          = true ! Compute ground state properties
!   CC_EOM_PROP          = true ! Compute excited state properties
!   CC_OSFNO             = true
   GUI                  = 2
$end

$opt
CONSTRAINT
stre  1  2  1.2
stre  2  3  1.2
ENDCONSTRAINT
$end
--------------------------------------------------------------

    8     -74.9650040615      1.66e-10  Convergence criterion met
 Total energy in the final basis set =      -74.9650040615
 CCSD total energy          = -75.01863668
    7     -74.9349147186      1.56e-09  Convergence criterion met
 Total energy in the final basis set =      -74.9349147186
 CCSD total energy          = -75.01097812
    7     -74.8975085410      1.51e-09  Convergence criterion met
 Total energy in the final basis set =      -74.8975085410
 CCSD total energy          = -74.98906139
    6     -74.8974733820      1.08e-10  Convergence criterion met
 Total energy in the final basis set =      -74.8974733820
 CCSD total energy          = -74.98902256

             Standard Nuclear Orientation (Angstroms)
    I     Atom           X                Y                Z
 ----------------------------------------------------------------
    1      H       0.8733099427    -0.5571933178     0.0000000000
    2      O      -0.0000058859     0.2658648082     0.0000000000
    3      H      -0.8731696108    -0.5573546793     0.0000000000
 ----------------------------------------------------------------

    6     -74.8976902659      9.16e-10  Convergence criterion met
 Total energy in the final basis set =      -74.8976902659
 CCSD total energy          = -74.98904495
 Final energy is   -74.989044951215035
 **  OPTIMIZATION CONVERGED  **

             Orbital Energies (a.u.) and Symmetries
 --------------------------------------------------------------

 Alpha MOs, Restricted
 -- Occupied --
-20.287  -1.189  -0.492  -0.443  -0.395
  1 A'    2 A'    3 A'    4 A'    1 A"

 Beta MOs, Restricted
 -- Occupied --
-20.287  -1.189  -0.492  -0.443  -0.395
  1 A'    2 A'    3 A'    4 A'    1 A"

          Ground-State Mulliken Net Atomic Charges

     Atom                 Charge (a.u.)
  ----------------------------------------
      1 H                     0.073326
      2 O                    -0.146652
      3 H                     0.073326
  ----------------------------------------
  Sum of atomic charges =     0.000000

                    Cartesian Multipole Moments
 -----------------------------------------------------------------
    Charge (ESU x 10^10)
                -0.0000
    Dipole Moment (Debye)
         X       0.0001      Y      -1.1883      Z       0.0000
       Tot       1.1883
    Quadrupole Moments (Debye-Ang)
        XX      -4.8642     XY       0.0000     YY      -5.5671
        XZ       0.0000     YZ       0.0000     ZZ      -6.2887

 Total job time:  15.98s(wall), 20.37s(cpu)
        *  Thank you very much for using Q-Chem.  Have a nice day.  *
