 Q-Chem 5.4 (devel), Q-Chem, Inc., Pleasanton, CA (2021)
 Q-Chem 5.4.1 for Intel X86 EM64T Linux

User input:
--------------------------------------------------------------
$comment
Water molecule
$end

$molecule
0 1
O
H O 1.2
H O 1.2 H 104.5
$end

$rem
!   n_frozen_core = 0
   print_qis = true
   BASIS                = sto-3g
!   SYMMETRY             = true
!   CC_SYMMETRY          = false
   METHOD               = eom-ccsd
   EE_SINGLETS          = [1,1,1,1] ! Compute two EOM-EE singlet excited states
   EE_TRIPLETS          = [1,1,1,1] ! Compute two EOM-EE triplet excited states
   CC_REF_PROP          = true ! Compute ground state properties
   CC_EOM_PROP          = true ! Compute excited state properties
!   CC_OSFNO             = true
   GUI                  = 2
$end
--------------------------------------------------------------

             Standard Nuclear Orientation (Angstroms)
    I     Atom           X                Y                Z
 ----------------------------------------------------------------
    1      O      -0.0000000000     0.0000000000     0.1469321472
    2      H      -0.9488274885    -0.0000000000    -0.5877285888
    3      H       0.9488274885    -0.0000000000    -0.5877285888
 ----------------------------------------------------------------

    8     -74.8952176345      5.84e-09  Convergence criterion met
 Total energy in the final basis set =      -74.8952176345
 CCSD total energy          = -74.98471177
 EOMEE transition 1/A1
 Total energy = -74.54578560 a.u.  Excitation energy = 11.94378846 eV.
 Excited state properties for  EOMEE-CCSD transition 1/A1
 EOMEE transition 1/A2
 Total energy = -74.66981596 a.u.  Excitation energy = 8.56875059 eV.
 Excited state properties for  EOMEE-CCSD transition 1/A2
 EOMEE transition 1/B1
 Total energy = -74.50971855 a.u.  Excitation energy = 12.92522274 eV.
 Excited state properties for  EOMEE-CCSD transition 1/B1
 EOMEE transition 1/B2
 Total energy = -74.73513373 a.u.  Excitation energy = 6.79136367 eV.
 Excited state properties for  EOMEE-CCSD transition 1/B2
 EOMEE transition 1/A1
 Total energy = -74.69570815 a.u.  Excitation energy = 7.86418832 eV.
 Excited state properties for  EOMEE-CCSD transition 1/A1
 EOMEE transition 1/A2
 Total energy = -74.70041638 a.u.  Excitation energy = 7.73607076 eV.
 Excited state properties for  EOMEE-CCSD transition 1/A2
 EOMEE transition 1/B1
 Total energy = -74.64176812 a.u.  Excitation energy = 9.33197123 eV.
 Excited state properties for  EOMEE-CCSD transition 1/B1
 EOMEE transition 1/B2
 Total energy = -74.77477219 a.u.  Excitation energy = 5.71274650 eV.
 Excited state properties for  EOMEE-CCSD transition 1/B2

             Orbital Energies (a.u.) and Symmetries
 --------------------------------------------------------------

 Alpha MOs, Restricted
 -- Occupied --
-20.277  -1.182  -0.507  -0.421  -0.389
  1 A1    2 A1    1 B1    3 A1    1 B2

 Beta MOs, Restricted
 -- Occupied --
-20.277  -1.182  -0.507  -0.421  -0.389
  1 A1    2 A1    1 B1    3 A1    1 B2

          Ground-State Mulliken Net Atomic Charges

     Atom                 Charge (a.u.)
  ----------------------------------------
      1 O                    -0.152478
      2 H                     0.076239
      3 H                     0.076239
  ----------------------------------------
  Sum of atomic charges =     0.000000

                    Cartesian Multipole Moments
 -----------------------------------------------------------------
    Charge (ESU x 10^10)
                 0.0000
    Dipole Moment (Debye)
         X       0.0000      Y       0.0000      Z      -1.1489
       Tot       1.1489
    Quadrupole Moments (Debye-Ang)
        XX      -4.5944     XY      -0.0000     YY      -6.2870
        XZ      -0.0000     YZ      -0.0000     ZZ      -5.4798

 Total job time:  8.76s(wall), 20.06s(cpu)
        *  Thank you very much for using Q-Chem.  Have a nice day.  *
