 Q-Chem 5.4 (devel), Q-Chem, Inc., Pleasanton, CA (2021)
 Q-Chem 5.4.1 for Intel X86 EM64T Linux

User input:
--------------------------------------------------------------
$comment
Water molecule
$end

$molecule
0 1
  H    0.5355326   -0.0489506    0.7341984
  O    0.0563012    0.0114119   -0.1303093
  H   -0.9024750   -0.0253772    0.1144725
$end

$rem
!   n_frozen_core = 0
!   print_qis = true
   JOBTYPE              = opt
   BASIS                = sto-3g
   SYMMETRY             = false
   CC_SYMMETRY          = false
   METHOD               = ccsd
!   EE_SINGLETS          = [5]  ! Compute two EOM-EE singlet excited states
!   EE_TRIPLETS          = [5]  ! Compute two EOM-EE triplet excited states
!   CC_REF_PROP          = true ! Compute ground state properties
!   CC_EOM_PROP          = true ! Compute excited state properties
!   CC_OSFNO             = true
   GUI                  = 2
$end

$opt
CONSTRAINT
stre  1  2  1.0
stre  2  3  1.0
ENDCONSTRAINT
$end
--------------------------------------------------------------

    8     -74.9650040615      1.66e-10  Convergence criterion met
 Total energy in the final basis set =      -74.9650040615
 CCSD total energy          = -75.01863668
    6     -74.9653987024      4.12e-09  Convergence criterion met
 Total energy in the final basis set =      -74.9653987024
 CCSD total energy          = -75.02081401
    6     -74.9656391715      3.89e-09  Convergence criterion met
 Total energy in the final basis set =      -74.9656391715
 CCSD total energy          = -75.02158494

             Standard Nuclear Orientation (Angstroms)
    I     Atom           X                Y                Z
 ----------------------------------------------------------------
    1      H       0.7524135891    -0.5024744772     0.0000000000
    2      O       0.0000051911     0.1564014878     0.0000000000
    3      H      -0.7522843342    -0.5026101995     0.0000000000
 ----------------------------------------------------------------

    6     -74.9654407919      1.38e-09  Convergence criterion met
 Total energy in the final basis set =      -74.9654407919
 CCSD total energy          = -75.02170569
 Final energy is   -75.021705686789474
 **  OPTIMIZATION CONVERGED  **

             Orbital Energies (a.u.) and Symmetries
 --------------------------------------------------------------

 Alpha MOs, Restricted
 -- Occupied --
-20.256  -1.255  -0.584  -0.464  -0.394
  1 A'    2 A'    3 A'    4 A'    1 A"

 Beta MOs, Restricted
 -- Occupied --
-20.256  -1.255  -0.584  -0.464  -0.394
  1 A'    2 A'    3 A'    4 A'    1 A"

          Ground-State Mulliken Net Atomic Charges

     Atom                 Charge (a.u.)
  ----------------------------------------
      1 H                     0.143982
      2 O                    -0.287965
      3 H                     0.143982
  ----------------------------------------
  Sum of atomic charges =     0.000000

                    Cartesian Multipole Moments
 -----------------------------------------------------------------
    Charge (ESU x 10^10)
                 0.0000
    Dipole Moment (Debye)
         X       0.0001      Y      -1.5706      Z       0.0000
       Tot       1.5706
    Quadrupole Moments (Debye-Ang)
        XX      -4.6973     XY       0.0000     YY      -5.4444
        XZ      -0.0000     YZ       0.0000     ZZ      -6.1496

 Total job time:  12.25s(wall), 15.43s(cpu)
        *  Thank you very much for using Q-Chem.  Have a nice day.  *
