 Q-Chem 5.4 (devel), Q-Chem, Inc., Pleasanton, CA (2021)
 Q-Chem 5.4.1 for Intel X86 EM64T Linux

User input:
--------------------------------------------------------------
$comment
Water molecule
$end

$molecule
0 1
O
H O 1.0
H O 1.0 H 104.5
$end

$rem
!   n_frozen_core = 0
   print_qis = true
   BASIS                = sto-3g
!   SYMMETRY             = true
!   CC_SYMMETRY          = false
   METHOD               = eom-ccsd
   EE_SINGLETS          = [1,1,1,1] ! Compute two EOM-EE singlet excited states
   EE_TRIPLETS          = [1,1,1,1] ! Compute two EOM-EE triplet excited states
   CC_REF_PROP          = true ! Compute ground state properties
   CC_EOM_PROP          = true ! Compute excited state properties
!   CC_OSFNO             = true
   GUI                  = 2
$end
--------------------------------------------------------------

             Standard Nuclear Orientation (Angstroms)
    I     Atom           X                Y                Z
 ----------------------------------------------------------------
    1      O      -0.0000000000     0.0000000000     0.1224434560
    2      H      -0.7906895737    -0.0000000000    -0.4897738240
    3      H       0.7906895737    -0.0000000000    -0.4897738240
 ----------------------------------------------------------------

    8     -74.9646625391      3.92e-11  Convergence criterion met
 Total energy in the final basis set =      -74.9646625391
 CCSD total energy          = -75.01964168
 EOMEE transition 1/A1
 Total energy = -74.45520566 a.u.  Excitation energy = 15.35908530 eV.
 Excited state properties for  EOMEE-CCSD transition 1/A1
 EOMEE transition 1/A2
 Total energy = -74.52591850 a.u.  Excitation energy = 13.43489093 eV.
 Excited state properties for  EOMEE-CCSD transition 1/A2
 EOMEE transition 1/B1
 Total energy = -74.36638172 a.u.  Excitation energy = 17.77610756 eV.
 Excited state properties for  EOMEE-CCSD transition 1/B1
 EOMEE transition 1/B2
 Total energy = -74.60703514 a.u.  Excitation energy = 11.22759490 eV.
 Excited state properties for  EOMEE-CCSD transition 1/B2
 EOMEE transition 1/A1
 Total energy = -74.56163908 a.u.  Excitation energy = 12.46288463 eV.
 Excited state properties for  EOMEE-CCSD transition 1/A1
 EOMEE transition 1/A2
 Total energy = -74.56183952 a.u.  Excitation energy = 12.45743019 eV.
 Excited state properties for  EOMEE-CCSD transition 1/A2
 EOMEE transition 1/B1
 Total energy = -74.48775576 a.u.  Excitation energy = 14.47335187 eV.
 Excited state properties for  EOMEE-CCSD transition 1/B1
 EOMEE transition 1/B2
 Total energy = -74.66327768 a.u.  Excitation energy = 9.69715745 eV.
 Excited state properties for  EOMEE-CCSD transition 1/B2

             Orbital Energies (a.u.) and Symmetries
 --------------------------------------------------------------

 Alpha MOs, Restricted
 -- Occupied --
-20.247  -1.248  -0.596  -0.448  -0.389
  1 A1    2 A1    1 B1    3 A1    1 B2

 Beta MOs, Restricted
 -- Occupied --
-20.247  -1.248  -0.596  -0.448  -0.389
  1 A1    2 A1    1 B1    3 A1    1 B2

          Ground-State Mulliken Net Atomic Charges

     Atom                 Charge (a.u.)
  ----------------------------------------
      1 O                    -0.295240
      2 H                     0.147620
      3 H                     0.147620
  ----------------------------------------
  Sum of atomic charges =     0.000000

                    Cartesian Multipole Moments
 -----------------------------------------------------------------
    Charge (ESU x 10^10)
                 0.0000
    Dipole Moment (Debye)
         X       0.0000      Y      -0.0000      Z      -1.5388
       Tot       1.5388
    Quadrupole Moments (Debye-Ang)
        XX      -4.5033     XY      -0.0000     YY      -6.1460
        XZ      -0.0000     YZ      -0.0000     ZZ      -5.4602

 Total job time:  4.97s(wall), 14.73s(cpu)
        *  Thank you very much for using Q-Chem.  Have a nice day.  *
