 Q-Chem 5.4 (devel), Q-Chem, Inc., Pleasanton, CA (2021)
 Q-Chem 5.4.1 for Intel X86 EM64T Linux

User input:
--------------------------------------------------------------
$comment
Water molecule
$end

$molecule
0 1
O
H O 0.5
H O 0.5 H 104.5
$end

$rem
   n_frozen_core = 0
   print_qis = true
   BASIS                = sto-3g
!   SYMMETRY             = true
!   CC_SYMMETRY          = false
   METHOD               = eom-ccsd
   EE_SINGLETS          = [1,1,1,1] ! Compute two EOM-EE singlet excited states
   EE_TRIPLETS          = [1,1,1,1] ! Compute two EOM-EE triplet excited states
   CC_REF_PROP          = true ! Compute ground state properties
   CC_EOM_PROP          = true ! Compute excited state properties
!   CC_OSFNO             = true
   GUI                  = 2
$end
--------------------------------------------------------------

             Standard Nuclear Orientation (Angstroms)
    I     Atom           X                Y                Z
 ----------------------------------------------------------------
    1      O      -0.0000000000     0.0000000000     0.0612217280
    2      H      -0.3953447869    -0.0000000000    -0.2448869120
    3      H       0.3953447869    -0.0000000000    -0.2448869120
 ----------------------------------------------------------------

    7     -73.1242343901      6.17e-09  Convergence criterion met
 Total energy in the final basis set =      -73.1242343901
 CCSD total energy          = -73.13762522
 EOMEE transition 1/A1
 Total energy = -72.06058482 a.u.  Excitation energy = 29.30775979 eV.
 Excited state properties for  EOMEE-CCSD transition 1/A1
 EOMEE transition 1/A2
 Total energy = -71.70299914 a.u.  Excitation energy = 39.03816083 eV.
 Excited state properties for  EOMEE-CCSD transition 1/A2
 EOMEE transition 1/B1
 Total energy = -71.69281243 a.u.  Excitation energy = 39.31535533 eV.
 Excited state properties for  EOMEE-CCSD transition 1/B1
 EOMEE transition 1/B2
 Total energy = -72.08627337 a.u.  Excitation energy = 28.60873867 eV.
 Excited state properties for  EOMEE-CCSD transition 1/B2
 EOMEE transition 1/A1
 Total energy = -72.08821409 a.u.  Excitation energy = 28.55592902 eV.
 Excited state properties for  EOMEE-CCSD transition 1/A1
 EOMEE transition 1/A2
 Total energy = -71.74044594 a.u.  Excitation energy = 38.01918166 eV.
 Excited state properties for  EOMEE-CCSD transition 1/A2
 EOMEE transition 1/B1
 Total energy = -71.76764548 a.u.  Excitation energy = 37.27904447 eV.
 Excited state properties for  EOMEE-CCSD transition 1/B1
 EOMEE transition 1/B2
 Total energy = -72.16846962 a.u.  Excitation energy = 26.37206500 eV.
 Excited state properties for  EOMEE-CCSD transition 1/B2

             Orbital Energies (a.u.) and Symmetries
 --------------------------------------------------------------

 Alpha MOs, Restricted
 -- Occupied --
-20.479  -1.696  -0.951  -0.589  -0.553
  1 A1    2 A1    1 B1    3 A1    1 B2

 Beta MOs, Restricted
 -- Occupied --
-20.479  -1.696  -0.951  -0.589  -0.553
  1 A1    2 A1    1 B1    3 A1    1 B2

          Ground-State Mulliken Net Atomic Charges

     Atom                 Charge (a.u.)
  ----------------------------------------
      1 O                    -1.262395
      2 H                     0.631198
      3 H                     0.631198
  ----------------------------------------
  Sum of atomic charges =     0.000000

                    Cartesian Multipole Moments
 -----------------------------------------------------------------
    Charge (ESU x 10^10)
                -0.0000
    Dipole Moment (Debye)
         X      -0.0000      Y       0.0000      Z      -2.0111
       Tot       2.0111
    Quadrupole Moments (Debye-Ang)
        XX      -4.6856     XY       0.0000     YY      -5.5946
        XZ       0.0000     YZ       0.0000     ZZ      -5.1834

 Total job time:  4.85s(wall), 14.45s(cpu)
        *  Thank you very much for using Q-Chem.  Have a nice day.  *
