 Q-Chem 5.4 (devel), Q-Chem, Inc., Pleasanton, CA (2021)
 Q-Chem 5.4.1 for Intel X86 EM64T Linux

User input:
--------------------------------------------------------------
$comment
Hydrogen molecule
$end

$molecule
0 1
H 0.0 0.0 0.0
H 0.0 0.0 0.6
$end

$rem
   print_qis = true
   BASIS                = 6-31g
   SYMMETRY             = false
   CC_SYMMETRY          = false
   METHOD               = eom-ccsd
   EE_SINGLETS          = [3]  ! Compute two EOM-EE singlet excited states
   EE_TRIPLETS          = [3]  ! Compute two EOM-EE triplet excited states
   CC_REF_PROP          = true ! Compute ground state properties
   CC_EOM_PROP          = true ! Compute excited state properties
!   CC_OSFNO             = true
   GUI                  = 2
$end
--------------------------------------------------------------

             Standard Nuclear Orientation (Angstroms)
    I     Atom           X                Y                Z
 ----------------------------------------------------------------
    1      H       0.0000000000     0.0000000000    -0.3000000000
    2      H       0.0000000000     0.0000000000     0.3000000000
 ----------------------------------------------------------------

    5      -1.1100308953      8.03e-10  Convergence criterion met
 Total energy in the final basis set =       -1.1100308953
 CCSD total energy          = -1.13195347
 EOMEE transition 1/A
 Total energy = -0.52313602 a.u.  Excitation energy = 16.56676536 eV.
 EOMEE transition 2/A
 Total energy = -0.10173762 a.u.  Excitation energy = 28.03359880 eV.
 EOMEE transition 3/A
 Total energy = 0.17674501 a.u.  Excitation energy = 35.61149663 eV.
 Excited state properties for  EOMEE-CCSD transition 1/A
 Excited state properties for  EOMEE-CCSD transition 2/A
 Excited state properties for  EOMEE-CCSD transition 3/A
 EOMEE transition 1/A
 Total energy = -0.65347494 a.u.  Excitation energy = 13.02006294 eV.
 EOMEE transition 2/A
 Total energy = -0.30540871 a.u.  Excitation energy = 22.49142678 eV.
 EOMEE transition 3/A
 Total energy = 0.42610578 a.u.  Excitation energy = 42.39694817 eV.
 Excited state properties for  EOMEE-CCSD transition 1/A
 Excited state properties for  EOMEE-CCSD transition 2/A
 Excited state properties for  EOMEE-CCSD transition 3/A

                    Orbital Energies (a.u.)
 --------------------------------------------------------------

 Alpha MOs
 -- Occupied --
 -0.6422

          Ground-State Mulliken Net Atomic Charges

     Atom                 Charge (a.u.)
  ----------------------------------------
      1 H                    -0.000000
      2 H                     0.000000
  ----------------------------------------
  Sum of atomic charges =     0.000000

                    Cartesian Multipole Moments
 -----------------------------------------------------------------
    Charge (ESU x 10^10)
                 0.0000
    Dipole Moment (Debye)
         X       0.0000      Y       0.0000      Z       0.0000
       Tot       0.0000
    Quadrupole Moments (Debye-Ang)
        XX      -1.8184     XY       0.0000     YY      -1.8184
        XZ       0.0000     YZ       0.0000     ZZ      -1.5429

 Total job time:  3.08s(wall), 4.16s(cpu)
        *  Thank you very much for using Q-Chem.  Have a nice day.  *
