 Q-Chem 5.4 (devel), Q-Chem, Inc., Pleasanton, CA (2021)
 Q-Chem 5.4.1 for Intel X86 EM64T Linux

User input:
--------------------------------------------------------------
$comment
Hydrogen molecule
$end

$molecule
0 1
H 0.0 0.0 0.0
H 0.0 0.0 1.5
$end

$rem
   print_qis = true
   BASIS                = 6-31g
   SYMMETRY             = false
   CC_SYMMETRY          = false
   METHOD               = eom-ccsd
   EE_SINGLETS          = [3]  ! Compute two EOM-EE singlet excited states
   EE_TRIPLETS          = [3]  ! Compute two EOM-EE triplet excited states
   CC_REF_PROP          = true ! Compute ground state properties
   CC_EOM_PROP          = true ! Compute excited state properties
!   CC_OSFNO             = true
   GUI                  = 2
$end
--------------------------------------------------------------

             Standard Nuclear Orientation (Angstroms)
    I     Atom           X                Y                Z
 ----------------------------------------------------------------
    1      H       0.0000000000     0.0000000000    -0.7500000000
    2      H       0.0000000000     0.0000000000     0.7500000000
 ----------------------------------------------------------------

    5      -0.9974972946      1.14e-12  Convergence criterion met
 Total energy in the final basis set =       -0.9974972946
 CCSD total energy          = -1.05434748
 EOMEE transition 1/A
 Total energy = -0.66895227 a.u.  Excitation energy = 10.48713694 eV.
 EOMEE transition 2/A
 Total energy = -0.55140189 a.u.  Excitation energy = 13.68584536 eV.
 EOMEE transition 3/A
 Total energy = -0.00518297 a.u.  Excitation energy = 28.54921831 eV.
 Excited state properties for  EOMEE-CCSD transition 1/A
 Excited state properties for  EOMEE-CCSD transition 2/A
 Excited state properties for  EOMEE-CCSD transition 3/A
 EOMEE transition 1/A
 Total energy = -0.95790574 a.u.  Excitation energy = 2.62431327 eV.
 EOMEE transition 2/A
 Total energy = -0.02803278 a.u.  Excitation energy = 27.92744312 eV.
 EOMEE transition 3/A
 Total energy = -0.01450343 a.u.  Excitation energy = 28.29559562 eV.
 Excited state properties for  EOMEE-CCSD transition 1/A
 Excited state properties for  EOMEE-CCSD transition 2/A
 Excited state properties for  EOMEE-CCSD transition 3/A

                    Orbital Energies (a.u.)
 --------------------------------------------------------------

 Alpha MOs
 -- Occupied --
 -0.4371

          Ground-State Mulliken Net Atomic Charges

     Atom                 Charge (a.u.)
  ----------------------------------------
      1 H                     0.000000
      2 H                    -0.000000
  ----------------------------------------
  Sum of atomic charges =     0.000000

                    Cartesian Multipole Moments
 -----------------------------------------------------------------
    Charge (ESU x 10^10)
                -0.0000
    Dipole Moment (Debye)
         X       0.0000      Y       0.0000      Z      -0.0000
       Tot       0.0000
    Quadrupole Moments (Debye-Ang)
        XX      -2.6262     XY       0.0000     YY      -2.6262
        XZ       0.0000     YZ       0.0000     ZZ      -1.7420

 Total job time:  2.47s(wall), 3.32s(cpu)
        *  Thank you very much for using Q-Chem.  Have a nice day.  *
