 Q-Chem 5.4 (devel), Q-Chem, Inc., Pleasanton, CA (2021)
 Q-Chem 5.4.1 for Intel X86 EM64T Linux

User input:
--------------------------------------------------------------
$comment
Hydrogen molecule
$end

$molecule
0 1
H 0.0 0.0 0.0
H 0.0 0.0 0.2
$end

$rem
   print_qis = true
   BASIS                = 6-31g
   SYMMETRY             = false
   CC_SYMMETRY          = false
   METHOD               = eom-ccsd
   EE_SINGLETS          = [3]  ! Compute two EOM-EE singlet excited states
   EE_TRIPLETS          = [3]  ! Compute two EOM-EE triplet excited states
   CC_REF_PROP          = true ! Compute ground state properties
   CC_EOM_PROP          = true ! Compute excited state properties
!   CC_OSFNO             = true
   GUI                  = 2
$end
--------------------------------------------------------------

             Standard Nuclear Orientation (Angstroms)
    I     Atom           X                Y                Z
 ----------------------------------------------------------------
    1      H       0.0000000000     0.0000000000    -0.1000000000
    2      H       0.0000000000     0.0000000000     0.1000000000
 ----------------------------------------------------------------

    6       0.0780727883      4.16e-10  Convergence criterion met
 Total energy in the final basis set =        0.0780727883
 CCSD total energy          = 0.06516889
 EOMEE transition 1/A
 Total energy = 0.85512204 a.u.  Excitation energy = 21.49571842 eV.
 EOMEE transition 2/A
 Total energy = 1.08918563 a.u.  Excitation energy = 27.86491267 eV.
 EOMEE transition 3/A
 Total energy = 2.18860409 a.u.  Excitation energy = 57.78161043 eV.
 Excited state properties for  EOMEE-CCSD transition 1/A
 Excited state properties for  EOMEE-CCSD transition 2/A
 Excited state properties for  EOMEE-CCSD transition 3/A
 EOMEE transition 1/A
 Total energy = 0.80302363 a.u.  Excitation energy = 20.07804871 eV.
 EOMEE transition 2/A
 Total energy = 0.91012960 a.u.  Excitation energy = 22.99255034 eV.
 EOMEE transition 3/A
 Total energy = 2.05263323 a.u.  Excitation energy = 54.08165530 eV.
 Excited state properties for  EOMEE-CCSD transition 1/A
 Excited state properties for  EOMEE-CCSD transition 2/A
 Excited state properties for  EOMEE-CCSD transition 3/A

                    Orbital Energies (a.u.)
 --------------------------------------------------------------

 Alpha MOs
 -- Occupied --
 -0.8255

          Ground-State Mulliken Net Atomic Charges

     Atom                 Charge (a.u.)
  ----------------------------------------
      1 H                    -0.000000
      2 H                    -0.000000
  ----------------------------------------
  Sum of atomic charges =     0.000000

                    Cartesian Multipole Moments
 -----------------------------------------------------------------
    Charge (ESU x 10^10)
                -0.0000
    Dipole Moment (Debye)
         X       0.0000      Y       0.0000      Z      -0.0000
       Tot       0.0000
    Quadrupole Moments (Debye-Ang)
        XX      -1.2127     XY       0.0000     YY      -1.2127
        XZ       0.0000     YZ       0.0000     ZZ      -1.1773

 Total job time:  4.37s(wall), 4.68s(cpu)
        *  Thank you very much for using Q-Chem.  Have a nice day.  *
