 Q-Chem 5.4 (devel), Q-Chem, Inc., Pleasanton, CA (2021)
 Q-Chem 5.4.1 for Intel X86 EM64T Linux

User input:
--------------------------------------------------------------
$comment
Hydrogen molecule
$end

$molecule
0 1
H 0.0 0.0 0.0
H 0.0 0.0 1.8
$end

$rem
   print_qis = true
   BASIS                = 6-31g
   SYMMETRY             = false
   CC_SYMMETRY          = false
   METHOD               = eom-ccsd
   EE_SINGLETS          = [3]  ! Compute two EOM-EE singlet excited states
   EE_TRIPLETS          = [3]  ! Compute two EOM-EE triplet excited states
   CC_REF_PROP          = true ! Compute ground state properties
   CC_EOM_PROP          = true ! Compute excited state properties
!   CC_OSFNO             = true
   GUI                  = 2
$end
--------------------------------------------------------------

             Standard Nuclear Orientation (Angstroms)
    I     Atom           X                Y                Z
 ----------------------------------------------------------------
    1      H       0.0000000000     0.0000000000    -0.9000000000
    2      H       0.0000000000     0.0000000000     0.9000000000
 ----------------------------------------------------------------

    4      -0.9460522017      2.60e-09  Convergence criterion met
 Total energy in the final basis set =       -0.9460522017
 CCSD total energy          = -1.02613537
 EOMEE transition 1/A
 Total energy = -0.66776159 a.u.  Excitation energy = 9.75184654 eV.
 EOMEE transition 2/A
 Total energy = -0.60817080 a.u.  Excitation energy = 11.37339438 eV.
 EOMEE transition 3/A
 Total energy = -0.00049820 a.u.  Excitation energy = 27.90900669 eV.
 Excited state properties for  EOMEE-CCSD transition 1/A
 Excited state properties for  EOMEE-CCSD transition 2/A
 Excited state properties for  EOMEE-CCSD transition 3/A
 EOMEE transition 1/A
 Total energy = -0.97892202 a.u.  Excitation energy = 1.28474052 eV.
 EOMEE transition 2/A
 Total energy = -0.01356877 a.u.  Excitation energy = 27.55333851 eV.
 EOMEE transition 3/A
 Total energy = -0.00985229 a.u.  Excitation energy = 27.65446899 eV.
 Excited state properties for  EOMEE-CCSD transition 1/A
 Excited state properties for  EOMEE-CCSD transition 2/A
 Excited state properties for  EOMEE-CCSD transition 3/A

                    Orbital Energies (a.u.)
 --------------------------------------------------------------

 Alpha MOs
 -- Occupied --
 -0.3994

          Ground-State Mulliken Net Atomic Charges

     Atom                 Charge (a.u.)
  ----------------------------------------
      1 H                     0.000000
      2 H                    -0.000000
  ----------------------------------------
  Sum of atomic charges =     0.000000

                    Cartesian Multipole Moments
 -----------------------------------------------------------------
    Charge (ESU x 10^10)
                 0.0000
    Dipole Moment (Debye)
         X       0.0000      Y       0.0000      Z      -0.0000
       Tot       0.0000
    Quadrupole Moments (Debye-Ang)
        XX      -2.6485     XY       0.0000     YY      -2.6485
        XZ       0.0000     YZ       0.0000     ZZ      -1.8554

 Total job time:  3.75s(wall), 3.84s(cpu)
        *  Thank you very much for using Q-Chem.  Have a nice day.  *
