 Q-Chem 5.4 (devel), Q-Chem, Inc., Pleasanton, CA (2021)
 Q-Chem 5.4.1 for Intel X86 EM64T Linux

User input:
--------------------------------------------------------------
$comment
Hydrogen molecule
$end

$molecule
0 1
 H         0.0000000000    0.0000000000    0.0000000000
 H         0.0000000000    0.0000000000    1.5000000000
 H         2.0000000000    0.0000000000    0.0000000000
 H         2.0000000000    0.0000000000    1.5000000000
$end

$rem
   n_frozen_core = 0
   print_qis = true
   BASIS                = sto-3g
!   SYMMETRY             = true
!   CC_SYMMETRY          = false
   METHOD               = eom-ccsd
   EE_SINGLETS          = [1,1,1,1,1,1,1,1] ! Compute two EOM-EE singlet excited states
   EE_TRIPLETS          = [1,1,1,1,1,1,1,1] ! Compute two EOM-EE triplet excited states
   CC_REF_PROP          = true ! Compute ground state properties
   CC_EOM_PROP          = true ! Compute excited state properties
!   CC_OSFNO             = true
   GUI                  = 2
$end
--------------------------------------------------------------

             Standard Nuclear Orientation (Angstroms)
    I     Atom           X                Y                Z
 ----------------------------------------------------------------
    1      H       1.0000000000    -0.7500000000    -0.0000000000
    2      H       1.0000000000     0.7500000000     0.0000000000
    3      H      -1.0000000000    -0.7500000000    -0.0000000000
    4      H      -1.0000000000     0.7500000000     0.0000000000
 ----------------------------------------------------------------

    2      -1.7972028335      9.59e-17  Convergence criterion met
 Total energy in the final basis set =       -1.7972028335
 CCSD total energy          = -1.98092843
 EOMEE transition 1/Ag
 Total energy = -1.79820263 a.u.  Excitation energy = 4.97222194 eV.
 Excited state properties for  EOMEE-CCSD transition 1/Ag
 EOMEE transition 1/B1g
 Total energy = -1.55286676 a.u.  Excitation energy = 11.64815052 eV.
 Excited state properties for  EOMEE-CCSD transition 1/B1g
 EOMEE transition 1/B2u
 Total energy = -1.45330055 a.u.  Excitation energy = 14.35748497 eV.
 Excited state properties for  EOMEE-CCSD transition 1/B2u
 EOMEE transition 1/B3u
 Total energy = -1.35769292 a.u.  Excitation energy = 16.95910084 eV.
 Excited state properties for  EOMEE-CCSD transition 1/B3u
 EOMEE transition 1/Ag
 Total energy = -1.30298957 a.u.  Excitation energy = 18.44765470 eV.
 Excited state properties for  EOMEE-CCSD transition 1/Ag
 EOMEE transition 1/B1g
 Total energy = -1.90550286 a.u.  Excitation energy = 2.05243424 eV.
 Excited state properties for  EOMEE-CCSD transition 1/B1g
 EOMEE transition 1/B2u
 Total energy = -1.86639672 a.u.  Excitation energy = 3.11656631 eV.
 Excited state properties for  EOMEE-CCSD transition 1/B2u
 EOMEE transition 1/B3u
 Total energy = -1.78718581 a.u.  Excitation energy = 5.27200500 eV.
 Excited state properties for  EOMEE-CCSD transition 1/B3u

             Orbital Energies (a.u.) and Symmetries
 --------------------------------------------------------------

 Alpha MOs, Restricted
 -- Occupied --
 -0.409  -0.286
  1 Ag    1 B3u

 Beta MOs, Restricted
 -- Occupied --
 -0.409  -0.286
  1 Ag    1 B3u

          Ground-State Mulliken Net Atomic Charges

     Atom                 Charge (a.u.)
  ----------------------------------------
      1 H                     0.000000
      2 H                     0.000000
      3 H                    -0.000000
      4 H                     0.000000
  ----------------------------------------
  Sum of atomic charges =     0.000000

                    Cartesian Multipole Moments
 -----------------------------------------------------------------
    Charge (ESU x 10^10)
                 0.0000
    Dipole Moment (Debye)
         X       0.0000      Y       0.0000      Z       0.0000
       Tot       0.0000
    Quadrupole Moments (Debye-Ang)
        XX      -3.8380     XY      -0.0000     YY      -2.5557
        XZ       0.0000     YZ       0.0000     ZZ      -3.6592

 Total job time:  6.81s(wall), 8.83s(cpu)
        *  Thank you very much for using Q-Chem.  Have a nice day.  *
