 Q-Chem 5.4 (devel), Q-Chem, Inc., Pleasanton, CA (2021)
 Q-Chem 5.4.1 for Intel X86 EM64T Linux

User input:
--------------------------------------------------------------
$comment
Hydrogen molecule
$end

$molecule
0 1
  Li        0.0000000000    0.0000000000    0.0000000000
  H         0.0000000000    0.0000000000    1.6000000000
$end

$rem
   n_frozen_core = 0
   print_qis = true
   BASIS                = sto-3g
   SYMMETRY             = false
   CC_SYMMETRY          = false
   METHOD               = eom-ccsd
   EE_SINGLETS          = [3]  ! Compute two EOM-EE singlet excited states
   EE_TRIPLETS          = [3]  ! Compute two EOM-EE triplet excited states
   CC_REF_PROP          = true ! Compute ground state properties
   CC_EOM_PROP          = true ! Compute excited state properties
   CC_OSFNO             = true
   GUI                  = 2
$end
--------------------------------------------------------------

             Standard Nuclear Orientation (Angstroms)
    I     Atom           X                Y                Z
 ----------------------------------------------------------------
    1      Li      0.0000000000     0.0000000000    -0.4000000000
    2      H       0.0000000000     0.0000000000     1.2000000000
 ----------------------------------------------------------------

    9      -7.8618647699      1.11e-09  Convergence criterion met
 Total energy in the final basis set =       -7.8618647699
 CCSD total energy          = -7.88231378
 EOMEE transition 1/A
 Total energy = -7.74933159 a.u.  Excitation energy = 3.61862934 eV.
 EOMEE transition 2/A
 Total energy = -7.69712648 a.u.  Excitation energy = 5.03920262 eV.
 EOMEE transition 3/A
 Total energy = -7.69712648 a.u.  Excitation energy = 5.03920264 eV.
 Excited state properties for  EOMEE-CCSD transition 1/A
 Excited state properties for  EOMEE-CCSD transition 2/A
 Excited state properties for  EOMEE-CCSD transition 3/A
 EOMEE transition 1/A
 Total energy = -7.76663181 a.u.  Excitation energy = 3.14786645 eV.
 EOMEE transition 2/A
 Total energy = -7.71655985 a.u.  Excitation energy = 4.51039381 eV.
 EOMEE transition 3/A
 Total energy = -7.71655985 a.u.  Excitation energy = 4.51039382 eV.
 Excited state properties for  EOMEE-CCSD transition 1/A
 Excited state properties for  EOMEE-CCSD transition 2/A
 Excited state properties for  EOMEE-CCSD transition 3/A

                    Orbital Energies (a.u.)
 --------------------------------------------------------------

 Alpha MOs
 -- Occupied --
 -2.3488  -0.2853

          Ground-State Mulliken Net Atomic Charges

     Atom                 Charge (a.u.)
  ----------------------------------------
      1 Li                   -0.020796
      2 H                     0.020796
  ----------------------------------------
  Sum of atomic charges =     0.000000

                    Cartesian Multipole Moments
 -----------------------------------------------------------------
    Charge (ESU x 10^10)
                 0.0000
    Dipole Moment (Debye)
         X      -0.0000      Y      -0.0000      Z      -4.6198
       Tot       4.6198
    Quadrupole Moments (Debye-Ang)
        XX      -5.4982     XY       0.0000     YY      -5.4982
        XZ      -0.0000     YZ       0.0000     ZZ      -4.8061

 Total job time:  4.37s(wall), 6.61s(cpu)
        *  Thank you very much for using Q-Chem.  Have a nice day.  *
