 Q-Chem 5.4 (devel), Q-Chem, Inc., Pleasanton, CA (2021)
 Q-Chem 5.4.1 for Intel X86 EM64T Linux

User input:
--------------------------------------------------------------
$comment
Hydrogen molecule
$end

$molecule
0 1
 H         0.0000000000    0.0000000000    0.0000000000
 H         0.0000000000    0.0000000000    1.5000000000
 H         1.7500000000    0.0000000000    0.0000000000
 H         1.7500000000    0.0000000000    1.5000000000
$end

$rem
   n_frozen_core = 0
   print_qis = true
   BASIS                = sto-3g
!   SYMMETRY             = true
!   CC_SYMMETRY          = false
   METHOD               = eom-ccsd
   EE_SINGLETS          = [1,1,1,1,1,1,1,1] ! Compute two EOM-EE singlet excited states
   EE_TRIPLETS          = [1,1,1,1,1,1,1,1] ! Compute two EOM-EE triplet excited states
   CC_REF_PROP          = true ! Compute ground state properties
   CC_EOM_PROP          = true ! Compute excited state properties
   cc_eom_prop_te = 1
!   CC_OSFNO             = true
   GUI                  = 2
$end
--------------------------------------------------------------

             Standard Nuclear Orientation (Angstroms)
    I     Atom           X                Y                Z
 ----------------------------------------------------------------
    1      H       0.8750000000    -0.7500000000    -0.0000000000
    2      H       0.8750000000     0.7500000000     0.0000000000
    3      H      -0.8750000000    -0.7500000000    -0.0000000000
    4      H      -0.8750000000     0.7500000000     0.0000000000
 ----------------------------------------------------------------

    2      -1.7695467708      4.83e-16  Convergence criterion met
 Total energy in the final basis set =       -1.7695467708
 CCSD total energy          = -1.96675447
 EOMEE transition 1/Ag
 Total energy = -1.81693231 a.u.  Excitation energy = 4.07686843 eV.
 EOMEE-CCSD transition 1/Ag
 Excited state properties for  EOMEE-CCSD transition 1/Ag
 EOMEE transition 1/B1g
 Total energy = -1.59743261 a.u.  Excitation energy = 10.04975896 eV.
 EOMEE-CCSD transition 1/B1g
 Excited state properties for  EOMEE-CCSD transition 1/B1g
 EOMEE transition 1/B2u
 Total energy = -1.45272809 a.u.  Excitation energy = 13.98736923 eV.
 EOMEE-CCSD transition 1/B2u
 Excited state properties for  EOMEE-CCSD transition 1/B2u
 EOMEE transition 1/B3u
 Total energy = -1.39050316 a.u.  Excitation energy = 15.68059584 eV.
 EOMEE-CCSD transition 1/B3u
 Excited state properties for  EOMEE-CCSD transition 1/B3u
 EOMEE transition 1/Ag
 Total energy = -1.27912979 a.u.  Excitation energy = 18.71121932 eV.
 EOMEE-CCSD transition 1/Ag
 Excited state properties for  EOMEE-CCSD transition 1/Ag
 EOMEE transition 1/B1g
 Total energy = -1.92803614 a.u.  Excitation energy = 1.05357935 eV.
 EOMEE-CCSD transition 1/B1g
 Excited state properties for  EOMEE-CCSD transition 1/B1g
 EOMEE transition 1/B2u
 Total energy = -1.83517026 a.u.  Excitation energy = 3.58058862 eV.
 EOMEE-CCSD transition 1/B2u
 Excited state properties for  EOMEE-CCSD transition 1/B2u
 EOMEE transition 1/B3u
 Total energy = -1.79396454 a.u.  Excitation energy = 4.70185327 eV.
 EOMEE-CCSD transition 1/B3u
 Excited state properties for  EOMEE-CCSD transition 1/B3u

             Orbital Energies (a.u.) and Symmetries
 --------------------------------------------------------------

 Alpha MOs, Restricted
 -- Occupied --
 -0.432  -0.254
  1 Ag    1 B3u

 Beta MOs, Restricted
 -- Occupied --
 -0.432  -0.254
  1 Ag    1 B3u

          Ground-State Mulliken Net Atomic Charges

     Atom                 Charge (a.u.)
  ----------------------------------------
      1 H                    -0.000000
      2 H                     0.000000
      3 H                     0.000000
      4 H                     0.000000
  ----------------------------------------
  Sum of atomic charges =     0.000000

                    Cartesian Multipole Moments
 -----------------------------------------------------------------
    Charge (ESU x 10^10)
                 0.0000
    Dipole Moment (Debye)
         X      -0.0000      Y       0.0000      Z       0.0000
       Tot       0.0000
    Quadrupole Moments (Debye-Ang)
        XX      -3.7942     XY       0.0000     YY      -2.7160
        XZ      -0.0000     YZ       0.0000     ZZ      -3.6319

 Total job time:  4.11s(wall), 11.85s(cpu)
        *  Thank you very much for using Q-Chem.  Have a nice day.  *
