 Q-Chem 5.4 (devel), Q-Chem, Inc., Pleasanton, CA (2021)
 Q-Chem 5.4.1 for Intel X86 EM64T Linux

User input:
--------------------------------------------------------------
$comment
Hydrogen molecule
$end

$molecule
0 1
  Li        0.0000000000    0.0000000000    0.0000000000
  H         0.0000000000    0.0000000000    1.2000000000
$end

$rem
   n_frozen_core = 0
   print_qis = true
   BASIS                = sto-3g
   SYMMETRY             = false
   CC_SYMMETRY          = false
   METHOD               = eom-ccsd
   EE_SINGLETS          = [3]  ! Compute two EOM-EE singlet excited states
   EE_TRIPLETS          = [3]  ! Compute two EOM-EE triplet excited states
   CC_REF_PROP          = true ! Compute ground state properties
   CC_EOM_PROP          = true ! Compute excited state properties
   CC_OSFNO             = true
   GUI                  = 2
$end
--------------------------------------------------------------

             Standard Nuclear Orientation (Angstroms)
    I     Atom           X                Y                Z
 ----------------------------------------------------------------
    1      Li      0.0000000000     0.0000000000    -0.3000000000
    2      H       0.0000000000     0.0000000000     0.9000000000
 ----------------------------------------------------------------

    9      -7.8356158254      2.20e-09  Convergence criterion met
 Total energy in the final basis set =       -7.8356158254
 CCSD total energy          = -7.85242435
 EOMEE transition 1/A
 Total energy = -7.70648922 a.u.  Excitation energy = 3.97109698 eV.
 EOMEE transition 2/A
 Total energy = -7.65086317 a.u.  Excitation energy = 5.48475855 eV.
 EOMEE transition 3/A
 Total energy = -7.65086317 a.u.  Excitation energy = 5.48475856 eV.
 Excited state properties for  EOMEE-CCSD transition 1/A
 Excited state properties for  EOMEE-CCSD transition 2/A
 Excited state properties for  EOMEE-CCSD transition 3/A
 EOMEE transition 1/A
 Total energy = -7.72113603 a.u.  Excitation energy = 3.57253682 eV.
 EOMEE transition 2/A
 Total energy = -7.67891055 a.u.  Excitation energy = 4.72155068 eV.
 EOMEE transition 3/A
 Total energy = -7.67891055 a.u.  Excitation energy = 4.72155069 eV.
 Excited state properties for  EOMEE-CCSD transition 1/A
 Excited state properties for  EOMEE-CCSD transition 2/A
 Excited state properties for  EOMEE-CCSD transition 3/A

                    Orbital Energies (a.u.)
 --------------------------------------------------------------

 Alpha MOs
 -- Occupied --
 -2.3499  -0.3130

          Ground-State Mulliken Net Atomic Charges

     Atom                 Charge (a.u.)
  ----------------------------------------
      1 Li                   -0.011335
      2 H                     0.011335
  ----------------------------------------
  Sum of atomic charges =     0.000000

                    Cartesian Multipole Moments
 -----------------------------------------------------------------
    Charge (ESU x 10^10)
                 0.0000
    Dipole Moment (Debye)
         X      -0.0000      Y      -0.0000      Z      -4.6768
       Tot       4.6768
    Quadrupole Moments (Debye-Ang)
        XX      -5.2385     XY      -0.0000     YY      -5.2385
        XZ      -0.0000     YZ       0.0000     ZZ      -5.6532

 Total job time:  3.87s(wall), 5.62s(cpu)
        *  Thank you very much for using Q-Chem.  Have a nice day.  *
