 Q-Chem 5.4 (devel), Q-Chem, Inc., Pleasanton, CA (2021)
 Q-Chem 5.4.1 for Intel X86 EM64T Linux

User input:
--------------------------------------------------------------
$comment
Hydrogen molecule
$end

$molecule
0 1
  Li        0.0000000000    0.0000000000    0.0000000000
  H         0.0000000000    0.0000000000    1.4000000000
$end

$rem
   n_frozen_core = 0
   print_qis = true
   BASIS                = sto-3g
   SYMMETRY             = false
   CC_SYMMETRY          = false
   METHOD               = eom-ccsd
   EE_SINGLETS          = [3]  ! Compute two EOM-EE singlet excited states
   EE_TRIPLETS          = [3]  ! Compute two EOM-EE triplet excited states
   CC_REF_PROP          = true ! Compute ground state properties
   CC_EOM_PROP          = true ! Compute excited state properties
   CC_OSFNO             = true
   GUI                  = 2
$end
--------------------------------------------------------------

             Standard Nuclear Orientation (Angstroms)
    I     Atom           X                Y                Z
 ----------------------------------------------------------------
    1      Li      0.0000000000     0.0000000000    -0.3500000000
    2      H       0.0000000000     0.0000000000     1.0500000000
 ----------------------------------------------------------------

    8      -7.8605386610      2.55e-09  Convergence criterion met
 Total energy in the final basis set =       -7.8605386610
 CCSD total energy          = -7.87844541
 EOMEE transition 1/A
 Total energy = -7.73617162 a.u.  Excitation energy = 3.87146662 eV.
 EOMEE transition 2/A
 Total energy = -7.68235682 a.u.  Excitation energy = 5.33584189 eV.
 EOMEE transition 3/A
 Total energy = -7.68235682 a.u.  Excitation energy = 5.33584191 eV.
 Excited state properties for  EOMEE-CCSD transition 1/A
 Excited state properties for  EOMEE-CCSD transition 2/A
 Excited state properties for  EOMEE-CCSD transition 3/A
 EOMEE transition 1/A
 Total energy = -7.75176914 a.u.  Excitation energy = 3.44703667 eV.
 EOMEE transition 2/A
 Total energy = -7.70609251 a.u.  Excitation energy = 4.68996073 eV.
 EOMEE transition 3/A
 Total energy = -7.70609251 a.u.  Excitation energy = 4.68996074 eV.
 Excited state properties for  EOMEE-CCSD transition 1/A
 Excited state properties for  EOMEE-CCSD transition 2/A
 Excited state properties for  EOMEE-CCSD transition 3/A

                    Orbital Energies (a.u.)
 --------------------------------------------------------------

 Alpha MOs
 -- Occupied --
 -2.3460  -0.3012

          Ground-State Mulliken Net Atomic Charges

     Atom                 Charge (a.u.)
  ----------------------------------------
      1 Li                   -0.019989
      2 H                     0.019989
  ----------------------------------------
  Sum of atomic charges =     0.000000

                    Cartesian Multipole Moments
 -----------------------------------------------------------------
    Charge (ESU x 10^10)
                -0.0000
    Dipole Moment (Debye)
         X       0.0000      Y       0.0000      Z      -4.6465
       Tot       4.6465
    Quadrupole Moments (Debye-Ang)
        XX      -5.3711     XY      -0.0000     YY      -5.3711
        XZ       0.0000     YZ       0.0000     ZZ      -5.2202

 Total job time:  3.93s(wall), 5.98s(cpu)
        *  Thank you very much for using Q-Chem.  Have a nice day.  *
