 Q-Chem 5.4 (devel), Q-Chem, Inc., Pleasanton, CA (2021)
 Q-Chem 5.4.1 for Intel X86 EM64T Linux

User input:
--------------------------------------------------------------
$comment
Hydrogen molecule
$end

$molecule
0 1
H 0.0 0.0 0.0
H 0.0 0.0 0.7
$end

$rem
   print_qis = true
   BASIS                = 6-31g
   SYMMETRY             = false
   CC_SYMMETRY          = false
   METHOD               = eom-ccsd
   EE_SINGLETS          = [3]  ! Compute two EOM-EE singlet excited states
   EE_TRIPLETS          = [3]  ! Compute two EOM-EE triplet excited states
   CC_REF_PROP          = true ! Compute ground state properties
   CC_EOM_PROP          = true ! Compute excited state properties
!   CC_OSFNO             = true
   GUI                  = 2
$end
--------------------------------------------------------------

             Standard Nuclear Orientation (Angstroms)
    I     Atom           X                Y                Z
 ----------------------------------------------------------------
    1      H       0.0000000000     0.0000000000    -0.3500000000
    2      H       0.0000000000     0.0000000000     0.3500000000
 ----------------------------------------------------------------

    5      -1.1261231615      6.20e-10  Convergence criterion met
 Total energy in the final basis set =       -1.1261231615
 CCSD total energy          = -1.15015685
 EOMEE transition 1/A
 Total energy = -0.57496658 a.u.  Excitation energy = 15.65172347 eV.
 EOMEE transition 2/A
 Total energy = -0.10837600 a.u.  Excitation energy = 28.34829865 eV.
 EOMEE transition 3/A
 Total energy = 0.01442064 a.u.  Excitation energy = 31.68976535 eV.
 Excited state properties for  EOMEE-CCSD transition 1/A
 Excited state properties for  EOMEE-CCSD transition 2/A
 Excited state properties for  EOMEE-CCSD transition 3/A
 EOMEE transition 1/A
 Total energy = -0.73210533 a.u.  Excitation energy = 11.37576055 eV.
 EOMEE transition 2/A
 Total energy = -0.30155363 a.u.  Excitation energy = 23.09166805 eV.
 EOMEE transition 3/A
 Total energy = 0.27389684 a.u.  Excitation energy = 38.75047176 eV.
 Excited state properties for  EOMEE-CCSD transition 1/A
 Excited state properties for  EOMEE-CCSD transition 2/A
 Excited state properties for  EOMEE-CCSD transition 3/A

                    Orbital Energies (a.u.)
 --------------------------------------------------------------

 Alpha MOs
 -- Occupied --
 -0.6083

          Ground-State Mulliken Net Atomic Charges

     Atom                 Charge (a.u.)
  ----------------------------------------
      1 H                     0.000000
      2 H                     0.000000
  ----------------------------------------
  Sum of atomic charges =     0.000000

                    Cartesian Multipole Moments
 -----------------------------------------------------------------
    Charge (ESU x 10^10)
                 0.0000
    Dipole Moment (Debye)
         X       0.0000      Y       0.0000      Z      -0.0000
       Tot       0.0000
    Quadrupole Moments (Debye-Ang)
        XX      -1.9628     XY       0.0000     YY      -1.9628
        XZ       0.0000     YZ       0.0000     ZZ      -1.6056

 Total job time:  3.47s(wall), 4.28s(cpu)
        *  Thank you very much for using Q-Chem.  Have a nice day.  *
