 Q-Chem 5.4 (devel), Q-Chem, Inc., Pleasanton, CA (2021)
 Q-Chem 5.4.1 for Intel X86 EM64T Linux

User input:
--------------------------------------------------------------
$comment
Water molecule
$end

$molecule
0 1
O
H O 0.6
H O 0.6 H 104.5
$end

$rem
   n_frozen_core = 0
   print_qis = true
   BASIS                = sto-3g
!   SYMMETRY             = true
!   CC_SYMMETRY          = false
   METHOD               = eom-ccsd
   EE_SINGLETS          = [1,1,1,1] ! Compute two EOM-EE singlet excited states
   EE_TRIPLETS          = [1,1,1,1] ! Compute two EOM-EE triplet excited states
   CC_REF_PROP          = true ! Compute ground state properties
   CC_EOM_PROP          = true ! Compute excited state properties
!   CC_OSFNO             = true
   GUI                  = 2
$end
--------------------------------------------------------------

             Standard Nuclear Orientation (Angstroms)
    I     Atom           X                Y                Z
 ----------------------------------------------------------------
    1      O      -0.0000000000     0.0000000000     0.0734660736
    2      H      -0.4744137442    -0.0000000000    -0.2938642944
    3      H       0.4744137442    -0.0000000000    -0.2938642944
 ----------------------------------------------------------------

    7     -74.1275567988      5.59e-09  Convergence criterion met
 Total energy in the final basis set =      -74.1275567988
 CCSD total energy          = -74.14617586
 EOMEE transition 1/A1
 Total energy = -73.15672403 a.u.  Excitation energy = 26.92435356 eV.
 Excited state properties for  EOMEE-CCSD transition 1/A1
 EOMEE transition 1/A2
 Total energy = -72.98604747 a.u.  Excitation energy = 31.56869894 eV.
 Excited state properties for  EOMEE-CCSD transition 1/A2
 EOMEE transition 1/B1
 Total energy = -72.87568256 a.u.  Excitation energy = 34.57188081 eV.
 Excited state properties for  EOMEE-CCSD transition 1/B1
 EOMEE transition 1/B2
 Total energy = -73.20565511 a.u.  Excitation energy = 25.59287113 eV.
 Excited state properties for  EOMEE-CCSD transition 1/B2
 EOMEE transition 1/A1
 Total energy = -73.19442791 a.u.  Excitation energy = 25.89837870 eV.
 Excited state properties for  EOMEE-CCSD transition 1/A1
 EOMEE transition 1/A2
 Total energy = -73.02380887 a.u.  Excitation energy = 30.54115908 eV.
 Excited state properties for  EOMEE-CCSD transition 1/A2
 EOMEE transition 1/B1
 Total energy = -72.97798667 a.u.  Excitation energy = 31.78804458 eV.
 Excited state properties for  EOMEE-CCSD transition 1/B1
 EOMEE transition 1/B2
 Total energy = -73.28856971 a.u.  Excitation energy = 23.33665017 eV.
 Excited state properties for  EOMEE-CCSD transition 1/B2

             Orbital Energies (a.u.) and Symmetries
 --------------------------------------------------------------

 Alpha MOs, Restricted
 -- Occupied --
-20.321  -1.569  -0.861  -0.533  -0.485
  1 A1    2 A1    1 B1    3 A1    1 B2

 Beta MOs, Restricted
 -- Occupied --
-20.321  -1.569  -0.861  -0.533  -0.485
  1 A1    2 A1    1 B1    3 A1    1 B2

          Ground-State Mulliken Net Atomic Charges

     Atom                 Charge (a.u.)
  ----------------------------------------
      1 O                    -0.938515
      2 H                     0.469257
      3 H                     0.469257
  ----------------------------------------
  Sum of atomic charges =     0.000000

                    Cartesian Multipole Moments
 -----------------------------------------------------------------
    Charge (ESU x 10^10)
                -0.0000
    Dipole Moment (Debye)
         X      -0.0000      Y      -0.0000      Z      -2.0133
       Tot       2.0133
    Quadrupole Moments (Debye-Ang)
        XX      -4.6038     XY       0.0000     YY      -5.7137
        XZ       0.0000     YZ       0.0000     ZZ      -5.2535

 Total job time:  6.44s(wall), 14.03s(cpu)
        *  Thank you very much for using Q-Chem.  Have a nice day.  *
