 Q-Chem 5.4 (devel), Q-Chem, Inc., Pleasanton, CA (2021)
 Q-Chem 5.4.1 for Intel X86 EM64T Linux

User input:
--------------------------------------------------------------
$comment
Hydrogen molecule
$end

$molecule
0 1
 H         0.0000000000    0.0000000000    0.0000000000
 H         0.0000000000    0.0000000000    1.5000000000
 H         1.7000000000    0.0000000000    0.0000000000
 H         1.7000000000    0.0000000000    1.5000000000
$end

$rem
   n_frozen_core = 0
   print_qis = true
   BASIS                = sto-3g
!   SYMMETRY             = true
!   CC_SYMMETRY          = false
   METHOD               = eom-ccsd
   EE_SINGLETS          = [1,1,1,1,1,1,1,1] ! Compute two EOM-EE singlet excited states
   EE_TRIPLETS          = [1,1,1,1,1,1,1,1] ! Compute two EOM-EE triplet excited states
   CC_REF_PROP          = true ! Compute ground state properties
   CC_EOM_PROP          = true ! Compute excited state properties
   cc_eom_prop_te = 1
!   CC_OSFNO             = true
   GUI                  = 2
$end
--------------------------------------------------------------

             Standard Nuclear Orientation (Angstroms)
    I     Atom           X                Y                Z
 ----------------------------------------------------------------
    1      H       0.8500000000    -0.7500000000    -0.0000000000
    2      H       0.8500000000     0.7500000000     0.0000000000
    3      H      -0.8500000000    -0.7500000000    -0.0000000000
    4      H      -0.8500000000     0.7500000000     0.0000000000
 ----------------------------------------------------------------

    2      -1.7612665220      3.43e-16  Convergence criterion met
 Total energy in the final basis set =       -1.7612665220
 CCSD total energy          = -1.96390280
 EOMEE transition 1/Ag
 Total energy = -1.82088630 a.u.  Excitation energy = 3.89167697 eV.
 EOMEE-CCSD transition 1/Ag
 Excited state properties for  EOMEE-CCSD transition 1/Ag
 EOMEE transition 1/B1g
 Total energy = -1.60672947 a.u.  Excitation energy = 9.71918055 eV.
 EOMEE-CCSD transition 1/B1g
 Excited state properties for  EOMEE-CCSD transition 1/B1g
 EOMEE transition 1/B2u
 Total energy = -1.45095546 a.u.  Excitation energy = 13.95800686 eV.
 EOMEE-CCSD transition 1/B2u
 Excited state properties for  EOMEE-CCSD transition 1/B2u
 EOMEE transition 1/B3u
 Total energy = -1.39753894 a.u.  Excitation energy = 15.41154455 eV.
 EOMEE-CCSD transition 1/B3u
 Excited state properties for  EOMEE-CCSD transition 1/B3u
 EOMEE transition 1/Ag
 Total energy = -1.27186807 a.u.  Excitation energy = 18.83122284 eV.
 EOMEE-CCSD transition 1/Ag
 Excited state properties for  EOMEE-CCSD transition 1/Ag
 EOMEE transition 1/B1g
 Total energy = -1.93569763 a.u.  Excitation energy = 0.76750166 eV.
 EOMEE-CCSD transition 1/B1g
 Excited state properties for  EOMEE-CCSD transition 1/B1g
 EOMEE transition 1/B2u
 Total energy = -1.82474392 a.u.  Excitation energy = 3.78670562 eV.
 EOMEE-CCSD transition 1/B2u
 Excited state properties for  EOMEE-CCSD transition 1/B2u
 EOMEE transition 1/B3u
 Total energy = -1.79578421 a.u.  Excitation energy = 4.57473962 eV.
 EOMEE-CCSD transition 1/B3u
 Excited state properties for  EOMEE-CCSD transition 1/B3u

             Orbital Energies (a.u.) and Symmetries
 --------------------------------------------------------------

 Alpha MOs, Restricted
 -- Occupied --
 -0.438  -0.245
  1 Ag    1 B3u

 Beta MOs, Restricted
 -- Occupied --
 -0.438  -0.245
  1 Ag    1 B3u

          Ground-State Mulliken Net Atomic Charges

     Atom                 Charge (a.u.)
  ----------------------------------------
      1 H                     0.000000
      2 H                     0.000000
      3 H                     0.000000
      4 H                     0.000000
  ----------------------------------------
  Sum of atomic charges =     0.000000

                    Cartesian Multipole Moments
 -----------------------------------------------------------------
    Charge (ESU x 10^10)
                 0.0000
    Dipole Moment (Debye)
         X       0.0000      Y       0.0000      Z      -0.0000
       Tot       0.0000
    Quadrupole Moments (Debye-Ang)
        XX      -3.7320     XY      -0.0000     YY      -2.8054
        XZ       0.0000     YZ       0.0000     ZZ      -3.6248

 Total job time:  4.26s(wall), 11.83s(cpu)
        *  Thank you very much for using Q-Chem.  Have a nice day.  *
