 Q-Chem 5.4 (devel), Q-Chem, Inc., Pleasanton, CA (2021)
 Q-Chem 5.4.1 for Intel X86 EM64T Linux

User input:
--------------------------------------------------------------
$comment
Hydrogen molecule
$end

$molecule
0 1
  Li        0.0000000000    0.0000000000    0.0000000000
  H         0.0000000000    0.0000000000    1.1000000000
$end

$rem
   n_frozen_core = 0
   print_qis = true
   BASIS                = sto-3g
   SYMMETRY             = false
   CC_SYMMETRY          = false
   METHOD               = eom-ccsd
   EE_SINGLETS          = [3]  ! Compute two EOM-EE singlet excited states
   EE_TRIPLETS          = [3]  ! Compute two EOM-EE triplet excited states
   CC_REF_PROP          = true ! Compute ground state properties
   CC_EOM_PROP          = true ! Compute excited state properties
   CC_OSFNO             = true
   GUI                  = 2
$end
--------------------------------------------------------------

             Standard Nuclear Orientation (Angstroms)
    I     Atom           X                Y                Z
 ----------------------------------------------------------------
    1      Li      0.0000000000     0.0000000000    -0.2750000000
    2      H       0.0000000000     0.0000000000     0.8250000000
 ----------------------------------------------------------------

    9      -7.8087431763      2.95e-09  Convergence criterion met
 Total energy in the final basis set =       -7.8087431763
 CCSD total energy          = -7.82553109
 EOMEE transition 1/A
 Total energy = -7.68107338 a.u.  Excitation energy = 3.93089430 eV.
 EOMEE transition 2/A
 Total energy = -7.62420242 a.u.  Excitation energy = 5.47843184 eV.
 EOMEE transition 3/A
 Total energy = -7.62420242 a.u.  Excitation energy = 5.47843185 eV.
 Excited state properties for  EOMEE-CCSD transition 1/A
 Excited state properties for  EOMEE-CCSD transition 2/A
 Excited state properties for  EOMEE-CCSD transition 3/A
 EOMEE transition 1/A
 Total energy = -7.69553037 a.u.  Excitation energy = 3.53749953 eV.
 EOMEE transition 2/A
 Total energy = -7.65446899 a.u.  Excitation energy = 4.65483667 eV.
 EOMEE transition 3/A
 Total energy = -7.65446899 a.u.  Excitation energy = 4.65483668 eV.
 Excited state properties for  EOMEE-CCSD transition 1/A
 Excited state properties for  EOMEE-CCSD transition 2/A
 Excited state properties for  EOMEE-CCSD transition 3/A

                    Orbital Energies (a.u.)
 --------------------------------------------------------------

 Alpha MOs
 -- Occupied --
 -2.3571  -0.3162

          Ground-State Mulliken Net Atomic Charges

     Atom                 Charge (a.u.)
  ----------------------------------------
      1 Li                   -0.005823
      2 H                     0.005823
  ----------------------------------------
  Sum of atomic charges =     0.000000

                    Cartesian Multipole Moments
 -----------------------------------------------------------------
    Charge (ESU x 10^10)
                -0.0000
    Dipole Moment (Debye)
         X      -0.0000      Y      -0.0000      Z      -4.6967
       Tot       4.6967
    Quadrupole Moments (Debye-Ang)
        XX      -5.1792     XY      -0.0000     YY      -5.1792
        XZ      -0.0000     YZ      -0.0000     ZZ      -5.8775

 Total job time:  3.87s(wall), 6.07s(cpu)
        *  Thank you very much for using Q-Chem.  Have a nice day.  *
