 Q-Chem 5.4 (devel), Q-Chem, Inc., Pleasanton, CA (2021)
 Q-Chem 5.4.1 for Intel X86 EM64T Linux

User input:
--------------------------------------------------------------
$comment
Hydrogen molecule
$end

$molecule
0 1
 H         0.0000000000    0.0000000000    0.0000000000
 H         0.0000000000    0.0000000000    1.5000000000
 H         2.1000000000    0.0000000000    0.0000000000
 H         2.1000000000    0.0000000000    1.5000000000
$end

$rem
   n_frozen_core = 0
   print_qis = true
   BASIS                = sto-3g
!   SYMMETRY             = true
!   CC_SYMMETRY          = false
   METHOD               = eom-ccsd
   EE_SINGLETS          = [1,1,1,1,1,1,1,1] ! Compute two EOM-EE singlet excited states
   EE_TRIPLETS          = [1,1,1,1,1,1,1,1] ! Compute two EOM-EE triplet excited states
   CC_REF_PROP          = true ! Compute ground state properties
   CC_EOM_PROP          = true ! Compute excited state properties
!   CC_OSFNO             = true
   GUI                  = 2
$end
--------------------------------------------------------------

             Standard Nuclear Orientation (Angstroms)
    I     Atom           X                Y                Z
 ----------------------------------------------------------------
    1      H       1.0500000000    -0.7500000000    -0.0000000000
    2      H       1.0500000000     0.7500000000     0.0000000000
    3      H      -1.0500000000    -0.7500000000    -0.0000000000
    4      H      -1.0500000000     0.7500000000     0.0000000000
 ----------------------------------------------------------------

    2      -1.8037610024      2.56e-16  Convergence criterion met
 Total energy in the final basis set =       -1.8037610024
 CCSD total energy          = -1.98494081
 EOMEE transition 1/Ag
 Total energy = -1.79332803 a.u.  Excitation energy = 5.21404898 eV.
 Excited state properties for  EOMEE-CCSD transition 1/Ag
 EOMEE transition 1/B1g
 Total energy = -1.53667725 a.u.  Excitation energy = 12.19787178 eV.
 Excited state properties for  EOMEE-CCSD transition 1/B1g
 EOMEE transition 1/B2u
 Total energy = -1.45065193 a.u.  Excitation energy = 14.53874000 eV.
 Excited state properties for  EOMEE-CCSD transition 1/B2u
 EOMEE transition 1/B3u
 Total energy = -1.34669155 a.u.  Excitation energy = 17.36764577 eV.
 Excited state properties for  EOMEE-CCSD transition 1/B3u
 EOMEE transition 1/Ag
 Total energy = -1.30834703 a.u.  Excitation energy = 18.41105317 eV.
 Excited state properties for  EOMEE-CCSD transition 1/Ag
 EOMEE transition 1/B1g
 Total energy = -1.90067570 a.u.  Excitation energy = 2.29297028 eV.
 Excited state properties for  EOMEE-CCSD transition 1/B1g
 EOMEE transition 1/B2u
 Total energy = -1.87297496 a.u.  Excitation energy = 3.04674567 eV.
 Excited state properties for  EOMEE-CCSD transition 1/B2u
 EOMEE transition 1/B3u
 Total energy = -1.78549731 a.u.  Excitation energy = 5.42713363 eV.
 Excited state properties for  EOMEE-CCSD transition 1/B3u

             Orbital Energies (a.u.) and Symmetries
 --------------------------------------------------------------

 Alpha MOs, Restricted
 -- Occupied --
 -0.402  -0.297
  1 Ag    1 B3u

 Beta MOs, Restricted
 -- Occupied --
 -0.402  -0.297
  1 Ag    1 B3u

          Ground-State Mulliken Net Atomic Charges

     Atom                 Charge (a.u.)
  ----------------------------------------
      1 H                     0.000000
      2 H                    -0.000000
      3 H                     0.000000
      4 H                     0.000000
  ----------------------------------------
  Sum of atomic charges =     0.000000

                    Cartesian Multipole Moments
 -----------------------------------------------------------------
    Charge (ESU x 10^10)
                 0.0000
    Dipole Moment (Debye)
         X      -0.0000      Y      -0.0000      Z      -0.0000
       Tot       0.0000
    Quadrupole Moments (Debye-Ang)
        XX      -3.8181     XY      -0.0000     YY      -2.5382
        XZ      -0.0000     YZ       0.0000     ZZ      -3.6666

 Total job time:  2.83s(wall), 7.13s(cpu)
        *  Thank you very much for using Q-Chem.  Have a nice day.  *
