 Q-Chem 5.4 (devel), Q-Chem, Inc., Pleasanton, CA (2021)
 Q-Chem 5.4.1 for Intel X86 EM64T Linux

User input:
--------------------------------------------------------------
$comment
Hydrogen molecule
$end

$molecule
0 1
H 0.0 0.0 0.0
H 0.0 0.0 1.2
$end

$rem
   print_qis = true
   BASIS                = 6-31g
   SYMMETRY             = false
   CC_SYMMETRY          = false
   METHOD               = eom-ccsd
   EE_SINGLETS          = [3]  ! Compute two EOM-EE singlet excited states
   EE_TRIPLETS          = [3]  ! Compute two EOM-EE triplet excited states
   CC_REF_PROP          = true ! Compute ground state properties
   CC_EOM_PROP          = true ! Compute excited state properties
!   CC_OSFNO             = true
   GUI                  = 2
$end
--------------------------------------------------------------

             Standard Nuclear Orientation (Angstroms)
    I     Atom           X                Y                Z
 ----------------------------------------------------------------
    1      H       0.0000000000     0.0000000000    -0.6000000000
    2      H       0.0000000000     0.0000000000     0.6000000000
 ----------------------------------------------------------------

    5      -1.0557592827      3.03e-13  Convergence criterion met
 Total energy in the final basis set =       -1.0557592827
 CCSD total energy          = -1.09559549
 EOMEE transition 1/A
 Total energy = -0.65630820 a.u.  Excitation energy = 11.95361520 eV.
 EOMEE transition 2/A
 Total energy = -0.43451141 a.u.  Excitation energy = 17.98901281 eV.
 EOMEE transition 3/A
 Total energy = 0.00460990 a.u.  Excitation energy = 29.93811123 eV.
 Excited state properties for  EOMEE-CCSD transition 1/A
 Excited state properties for  EOMEE-CCSD transition 2/A
 Excited state properties for  EOMEE-CCSD transition 3/A
 EOMEE transition 1/A
 Total energy = -0.91549698 a.u.  Excitation energy = 4.90072969 eV.
 EOMEE transition 2/A
 Total energy = -0.08280306 a.u.  Excitation energy = 27.55948375 eV.
 EOMEE transition 3/A
 Total energy = -0.01933509 a.u.  Excitation energy = 29.28653494 eV.
 Excited state properties for  EOMEE-CCSD transition 1/A
 Excited state properties for  EOMEE-CCSD transition 2/A
 Excited state properties for  EOMEE-CCSD transition 3/A

                    Orbital Energies (a.u.)
 --------------------------------------------------------------

 Alpha MOs
 -- Occupied --
 -0.4863

          Ground-State Mulliken Net Atomic Charges

     Atom                 Charge (a.u.)
  ----------------------------------------
      1 H                    -0.000000
      2 H                     0.000000
  ----------------------------------------
  Sum of atomic charges =     0.000000

                    Cartesian Multipole Moments
 -----------------------------------------------------------------
    Charge (ESU x 10^10)
                -0.0000
    Dipole Moment (Debye)
         X       0.0000      Y       0.0000      Z       0.0000
       Tot       0.0000
    Quadrupole Moments (Debye-Ang)
        XX      -2.4968     XY       0.0000     YY      -2.4968
        XZ       0.0000     YZ       0.0000     ZZ      -1.7242

 Total job time:  2.52s(wall), 3.47s(cpu)
        *  Thank you very much for using Q-Chem.  Have a nice day.  *
