 Q-Chem 5.4 (devel), Q-Chem, Inc., Pleasanton, CA (2021)
 Q-Chem 5.4.1 for Intel X86 EM64T Linux

User input:
--------------------------------------------------------------
$comment
Hydrogen molecule
$end

$molecule
0 1
H 0.0 0.0 0.0
H 0.0 0.0 1.1
$end

$rem
   print_qis = true
   BASIS                = 6-31g
   SYMMETRY             = false
   CC_SYMMETRY          = false
   METHOD               = eom-ccsd
   EE_SINGLETS          = [3]  ! Compute two EOM-EE singlet excited states
   EE_TRIPLETS          = [3]  ! Compute two EOM-EE triplet excited states
   CC_REF_PROP          = true ! Compute ground state properties
   CC_EOM_PROP          = true ! Compute excited state properties
!   CC_OSFNO             = true
   GUI                  = 2
$end
--------------------------------------------------------------

             Standard Nuclear Orientation (Angstroms)
    I     Atom           X                Y                Z
 ----------------------------------------------------------------
    1      H       0.0000000000     0.0000000000    -0.5500000000
    2      H       0.0000000000     0.0000000000     0.5500000000
 ----------------------------------------------------------------

    5      -1.0756856948      8.25e-13  Convergence criterion met
 Total energy in the final basis set =       -1.0756856948
 CCSD total energy          = -1.11126985
 EOMEE transition 1/A
 Total energy = -0.64851506 a.u.  Excitation energy = 12.59219831 eV.
 EOMEE transition 2/A
 Total energy = -0.37637171 a.u.  Excitation energy = 19.99759530 eV.
 EOMEE transition 3/A
 Total energy = -0.01527122 a.u.  Excitation energy = 29.82363946 eV.
 Excited state properties for  EOMEE-CCSD transition 1/A
 Excited state properties for  EOMEE-CCSD transition 2/A
 Excited state properties for  EOMEE-CCSD transition 3/A
 EOMEE transition 1/A
 Total energy = -0.89375203 a.u.  Excitation energy = 5.91896080 eV.
 EOMEE transition 2/A
 Total energy = -0.12615202 a.u.  Excitation energy = 26.80641938 eV.
 EOMEE transition 3/A
 Total energy = -0.00078452 a.u.  Excitation energy = 30.21784265 eV.
 Excited state properties for  EOMEE-CCSD transition 1/A
 Excited state properties for  EOMEE-CCSD transition 2/A
 Excited state properties for  EOMEE-CCSD transition 3/A

                    Orbital Energies (a.u.)
 --------------------------------------------------------------

 Alpha MOs
 -- Occupied --
 -0.5059

          Ground-State Mulliken Net Atomic Charges

     Atom                 Charge (a.u.)
  ----------------------------------------
      1 H                    -0.000000
      2 H                     0.000000
  ----------------------------------------
  Sum of atomic charges =     0.000000

                    Cartesian Multipole Moments
 -----------------------------------------------------------------
    Charge (ESU x 10^10)
                 0.0000
    Dipole Moment (Debye)
         X       0.0000      Y       0.0000      Z       0.0000
       Tot       0.0000
    Quadrupole Moments (Debye-Ang)
        XX      -2.4212     XY       0.0000     YY      -2.4212
        XZ       0.0000     YZ       0.0000     ZZ      -1.7207

 Total job time:  2.75s(wall), 3.77s(cpu)
        *  Thank you very much for using Q-Chem.  Have a nice day.  *
