 Q-Chem 5.4 (devel), Q-Chem, Inc., Pleasanton, CA (2021)
 Q-Chem 5.4.1 for Intel X86 EM64T Linux

User input:
--------------------------------------------------------------
$comment
Hydrogen molecule
$end

$molecule
0 1
 H         0.0000000000    0.0000000000    0.0000000000
 H         0.0000000000    0.0000000000    1.5000000000
 H         2.3500000000    0.0000000000    0.0000000000
 H         2.3500000000    0.0000000000    1.5000000000
$end

$rem
   n_frozen_core = 0
   print_qis = true
   BASIS                = sto-3g
!   SYMMETRY             = true
!   CC_SYMMETRY          = false
   METHOD               = eom-ccsd
   EE_SINGLETS          = [1,1,1,1,1,1,1,1] ! Compute two EOM-EE singlet excited states
   EE_TRIPLETS          = [1,1,1,1,1,1,1,1] ! Compute two EOM-EE triplet excited states
   CC_REF_PROP          = true ! Compute ground state properties
   CC_EOM_PROP          = true ! Compute excited state properties
!   CC_OSFNO             = true
   GUI                  = 2
$end
--------------------------------------------------------------

             Standard Nuclear Orientation (Angstroms)
    I     Atom           X                Y                Z
 ----------------------------------------------------------------
    1      H       1.1750000000    -0.7500000000    -0.0000000000
    2      H       1.1750000000     0.7500000000     0.0000000000
    3      H      -1.1750000000    -0.7500000000    -0.0000000000
    4      H      -1.1750000000     0.7500000000     0.0000000000
 ----------------------------------------------------------------

    2      -1.8136751979      2.95e-16  Convergence criterion met
 Total energy in the final basis set =       -1.8136751979
 CCSD total energy          = -1.99122733
 EOMEE transition 1/Ag
 Total energy = -1.78624533 a.u.  Excitation energy = 5.57784374 eV.
 Excited state properties for  EOMEE-CCSD transition 1/Ag
 EOMEE transition 1/B1g
 Total energy = -1.50165976 a.u.  Excitation energy = 13.32181093 eV.
 Excited state properties for  EOMEE-CCSD transition 1/B1g
 EOMEE transition 1/B2u
 Total energy = -1.44026585 a.u.  Excitation energy = 14.99242432 eV.
 Excited state properties for  EOMEE-CCSD transition 1/B2u
 EOMEE transition 1/B3u
 Total energy = -1.32611442 a.u.  Excitation energy = 18.09864264 eV.
 Excited state properties for  EOMEE-CCSD transition 1/B3u
 EOMEE transition 1/Ag
 Total energy = -1.31634047 a.u.  Excitation energy = 18.36460531 eV.
 Excited state properties for  EOMEE-CCSD transition 1/Ag
 EOMEE transition 1/B1g
 Total energy = -1.89377670 a.u.  Excitation energy = 2.65176648 eV.
 Excited state properties for  EOMEE-CCSD transition 1/B1g
 EOMEE transition 1/B2u
 Total energy = -1.88223666 a.u.  Excitation energy = 2.96578676 eV.
 Excited state properties for  EOMEE-CCSD transition 1/B2u
 EOMEE transition 1/B3u
 Total energy = -1.78300604 a.u.  Excitation energy = 5.66598936 eV.
 Excited state properties for  EOMEE-CCSD transition 1/B3u

             Orbital Energies (a.u.) and Symmetries
 --------------------------------------------------------------

 Alpha MOs, Restricted
 -- Occupied --
 -0.387  -0.316
  1 Ag    1 B3u

 Beta MOs, Restricted
 -- Occupied --
 -0.387  -0.316
  1 Ag    1 B3u

          Ground-State Mulliken Net Atomic Charges

     Atom                 Charge (a.u.)
  ----------------------------------------
      1 H                     0.000000
      2 H                     0.000000
      3 H                     0.000000
      4 H                     0.000000
  ----------------------------------------
  Sum of atomic charges =     0.000000

                    Cartesian Multipole Moments
 -----------------------------------------------------------------
    Charge (ESU x 10^10)
                 0.0000
    Dipole Moment (Debye)
         X       0.0000      Y      -0.0000      Z       0.0000
       Tot       0.0000
    Quadrupole Moments (Debye-Ang)
        XX      -3.7655     XY      -0.0000     YY      -2.5204
        XZ      -0.0000     YZ       0.0000     ZZ      -3.6790

 Total job time:  2.72s(wall), 5.69s(cpu)
        *  Thank you very much for using Q-Chem.  Have a nice day.  *
